<?xml version="1.0"?>
<VTKFile type="UnstructuredGrid" version="0.1" byte_order="LittleEndian" header_type="UInt32" compressor="vtkZLibDataCompressor">
  <UnstructuredGrid>
    <Piece NumberOfPoints="5791" NumberOfCells="5791">
      <PointData>
        <DataArray type="Int32" Name="id" format="ascii" RangeMin="1" RangeMax="5817">
          2283 1157 2712 275 2155 1466
          2841 4323 81 2995 2050 3326
          1843 820 2054 3001 700 704
          333 2993 3826 3080 4414 2842
          1806 5696 814 921 2227 719
          2382 1947 604 2097 2437 706
          2055 2049 2128 274 4647 3214
          1441 920 4338 79 1098 1590
          95 2716 1236 481 1142 1203
          4978 2692 1037 276 41 80
          4063 2709 2586 1 92 627
          2916 2247 2246 1202 4290 1048
          2693 2844 3945 1288 4172 2414
          3596 2840 3398 3285 1735 5076
          3284 2516 3635 3469 287 240
          161 230 5149 1865 82 3796
          4287 3739 2051 4216 571 277
          1080 2668 929 1884 2281 1101
          2990 2248 280 1631 1034 3433
          4625 707 3216 3399 1430 3120
          386 4852 1399 2694 2971 1527
          3415 3173 3434 2650 1889 3661
          2711 4170 891 3480 582 235
          2310 1247 476 655 2095 2767
          2487 5801 3436 5201 1042 1035
          84 2076 231 289 2229 411
          445 3704 3470 2333 3825 2436
          94 2334 200 479 4340 3327
          1807 4648 387 5773 1271 1186
          4557 2940 2100 4938 163 2384
          477 3740 234 4765 3400 815
          818 1220 705 2664 5119 2413
          233 2228 821 702 2356 4086
          90 2355 2156 1842 1165 2282
          1605 243 2714 1887 482 1097
          1250 1444 291 2056 2440 2101
          2250 3662 2129 3324 573 5284
          703 5053 1168 4062 2133 2769
          784 1352 1528 1866 3742 2717
          2616 1445 4339 2308 505 1443
          4729 1100 3401 2360 4416 1685
          45 4558 1944 5714 4624 1945
          4289 4420 4435 1269 4661 1245
          2696 2075 2975 1005 2434 1237
          3172 1185 294 4979 1917 4697
          1316 3215 654 1102 2383 3435
          4662 4040 1529 2472 5248 5456
          2435 5200 1246 2005 4217 2992
          1372 1777 3238 1158 4960 2972
          3122 605 47 1497 2249 4200
          4959 4893 3872 782 715 21
          295 786 626 3121 3015 1373
          3471 5598 3618 4481 1918 2517
          4660 2666 2941 1353 2543 1470
          1778 536 572 2335 268 2945
          3832 783 657 5671 4626 709
          4341 1187 2942 2885 5635 2976
          48 4512 4171 1374 2721 506
          5802 1966 3123 656 4664 3016
          3875 2766 5318 712 1251 528
          2131 3 292 3905 3437 4797
          3873 3892 2 2729 1357 4415
          286 5356 3833 4199 3893 2583
          537 1244 1400 4891 4198 1043
          4419 1270 3502 4126 4943 3728
          3599 3259 4324 1160 1684 1184
          1033 1166 3040 1045 4418 1038
          5670 1984 1104 2973 444 1686
          4147 1032 2053 5552 202 418
          681 164 4004 1371 1951 4173
          653 2132 3258 448 4598 3349
          1946 892 2695 2540 5270 3573
          1442 5202 1765 1844 2052 3947
          2103 3083 4806 2006 155 4303
          1161 416 3727 83 199 1498
          4005 5054 1036 1985 3217 4663
          2309 1565 1737 4475 3688 3798
          2823 4617 1738 2381 2944 1428
          2096 278 2868 924 2206 535
          2541 817 4696 2643 2032 5321
          5400 1249 1736 4542 2642 678
          2358 2882 2697 4579 2077 2974
          1502 1500 4342 5739 1310 4304
          5204 1201 3481 4918 299 2665
          5134 4286 2824 628 3503 5715
          819 5505 2710 1335 2380 5148
          3977 3800 2357 2718 3978 3039
          237 4388 4293 3468 1401 5636
          4292 4545 4288 3928 2994 53
          3637 2917 2770 3636 3482 5458
          2996 3850 5152 4892 3876 478
          5303 2991 1398 2396 2387 2332
          2138 1885 2312 1759 609 1040
          1163 232 2313 5205 829 1041
          552 4514 3597 1376 2099 2585
          5526 1501 1531 1292 412 2488
          2918 3946 1427 22 683 483
          1248 5553 1780 2845 3574 3874
          4515 417 31 5357 1002 5170
          3877 2337 2539 4041 2584 1426
          3402 2667 1099 4294 3705 2999
          2663 2385 1689 2102 2078 4665
          4174 2286 297 680 5151 5738
          4627 4003 4766 5804 793 824
          5319 279 480 5150 1949 2919
          3744 4919 5697 42 1504 1354
          3769 3325 5554 4807 1920 3528
          787 4436 4218 5135 390 1779
          3619 4042 1499 4666 925 2795
          2251 2386 2671 4417 2314 168
          4148 1567 3663 2843 4434 574
          2977 3371 388 4698 713 4599
          1189 3729 577 3018 1321 1739
          893 3768 1782 3416 575 679
          5672 504 162 87 3743 2284
          3082 4066 3085 2033 813 1031
          1051 3124 5249 520 1530 1919
          3638 1205 2848 4065 1313 1311
          422 1291 1950 5673 4600 1760
          2104 1781 2588 3664 4798 2031
          5172 1783 1632 576 1159 684
          1892 1891 3666 4980 5421 5422
          2080 1377 167 3797 5423 5055
          3081 708 1471 1047 3261 3640
          4263 2439 5011 2315 3741 1653
          86 32 3218 4731 816 85
          2491 282 3799 2098 1654 1868
          2034 2883 2130 5203 2287 446
          4894 3198 1081 1167 455 3770
          5460 220 2669 3620 4497 5740
          4544 1785 1867 49 2719 1714
          2079 4921 5056 710 4476 5527
          3767 419 1429 1204 1503 1952
          2768 3017 2715 1145 285 4730
          5482 1162 2443 2036 1044 4149
          3146 507 922 1607 4559 420
          1039 44 2946 93 1049 4477
          3601 4291 1634 1337 3240 5271
          12 2847 785 4262 4175 3689
          2316 3237 3350 2311 4939 1472
          1888 4628 2390 5378 5506 4650
          1190 2441 658 3745 2290 1007
          4438 894 238 88 2870 2978
          5320 2336 682 1886 1566 827
          4478 2359 2722 822 2489 3019
          1052 1713 4204 1688 484 4686
          1986 529 3948 2673 2939 5077
          5459 1948 203 2670 2644 2157
          714 5230 3600 2415 173 1003
          2724 2230 1633 2159 5599 3086
          1403 3801 2713 5173 2698 5774
          2471 2771 1606 2542 3306 4202
          4047 4242 2869 1381 2617 3949
          2288 5322 5775 4920 1289 2285
          1375 1784 284 630 2289 5637
          4064 4961 2490 5326 5401 5136
          91 4767 3665 1473 43 4006
          4895 160 2825 2317 2035 5306
          4422 3950 166 4768 2674 5638
          1402 2938 389 3576 1050 3929
          4940 3328 281 3377 3021 2589
          5323 2416 2997 4044 3372 3260
          825 2587 3329 2158 2796 1687
          2057 5012 4513 629 4176 1290
          5153 4045 1763 2007 4982 3373
          3621 1054 4067 5286 4618 5325
          3639 3598 1890 5742 5038 2231
          2395 1336 606 165 1312 3828
          3262 2518 3084 3577 923 4421
          4201 5252 3504 1921 447 4241
          1334 895 823 3484 1869 283
          1164 3000 2884 5578 4516 5803
          5250 89 1761 4178 3747 5677
          4219 153 1004 1870 4205 4244
          2208 3749 3379 1106 1655 2444
          4853 4177 826 4941 5600 3381
          3126 2772 3088 1893 5039 1053
          2943 4343 5483 5206 3041 2318
          3529 578 5171 11 5602 1046
          2672 4699 3382 4873 2947 1474
          5327 5621 3239 3483 2920 607
          5716 5175 46 4423 5379 5529
          828 2134 4203 4601 2338 3417
          236 1105 3894 5741 3200 1006
          4602 4563 4043 1103 5700 3199
          1845 3530 1221 2720 5461 4981
          5359 5358 5285 2726 5078 4245
          1591 5079 3020 711 5485 896
          5342 5229 2798 5251 3352 1764
          3374 3087 5304 3834 5253 1082
          5678 5305 3044 5674 5577 5424
          4546 4499 2038 2979 4437 4547
          5507 5324 4527 3575 288 5508
          1272 4984 4049 4389 4896 4835
          5675 421 3485 579 2207 4769
          1465 5254 4264 5176 2826 1532
          4391 1554 4560 5623 5531 5121
          5603 3668 3622 4619 3532 4770
          5120 5462 5746 2519 4771 290
          1188 2291 1922 5601 5154 4370
          4700 3063 415 5274 4649 5676
          5717 5747 3351 3706 2442 3827
          293 3147 3746 5776 2037 2252
          3148 5486 1786 3602 1222 3878
          3125 3691 5698 4565 4458 4392
          4069 4874 5174 5622 5360 2618
          5806 3641 4808 3667 4701 2417
          4620 5699 4393 4922 5463 4439
          3896 3531 1446 5464 4773 5104
          4983 1608 4046 4344 5425 1592
          4390 3771 4772 5744 4127 2797
          5743 5530 4048 4561 5528 1894
          4872 4774 5748 5555 4963 5484
          5307 449 3748 1953 5745 4517
          4007 4630 3380 3690 5382 3439
          5381 1895 5207 2699 5805 5080
          1740 3851 2645 4150 3438 5718
          4151 4713 3375 4854 2389 1690
          5137 4962 5777 4837 5105 4687
          2725 4243 2921 201 2773 3642
          4024 5345 5343 5639 5344 4564
          5272 1846 4562 5273 3330 5403
          3578 4068 2727 2723 5679 4629
          3042 3043 5361 3897 3895 4836
          3533 5231 3376 4106 5605 5604
          1143 4265 5275 5081 4266 3418
          3127 3378 5556 2619 2728 3836
          4757 3835 1273 4809 4964 5380
          3022 5680 4008 4712 5749 5750
          5656 4070 4758 5362 5057 5276
          1718 2392 2008 2445 2621 3551
          3150 4108 4071 1267 1238 3202
          3203 1107 926 1056 1954 1206
          663 1808 1660 5585 1847 930
          334 303 2544 1112 1113 2851
          950 1110 110 2732 3553 4500
          608 3333 3507 2681 832 311
          836 106 2232 2391 5428 4632
          1656 2646 2800 485 1062 2253
          239 791 1475 3219 1169 2293
          97 3243 5232 3128 312 2210
          1404 3692 3441 1533 564 3693
          298 5534 486 52 5719 2419
          1223 96 5682 397 662 3669
          2871 936 5255 114 660 5288
          2774 3174 792 685 2889 1055
          3871 928 904 1111 847 4519
          5177 2980 302 5363 5427 4942
          391 2730 1225 5328 4206 1338
          2775 3908 98 1741 3505 1635
          3750 5807 5256 4207 632 4839
          831 108 55 1871 4714 1011
          2731 1355 5364 4345 100 3221
          451 581 5287 2393 1717 3579
          5487 413 5347 4775 2734 5624
          5532 3904 5557 2523 4128 4566
          5535 3730 1743 2163 3175 3023
          2872 2319 3151 717 3353 1295
          931 3907 4179 1314 4811 2647
          1057 3643 1224 4523 2546 2675
          2591 24 242 1594 555 538
          3979 933 4985 3420 3552 241
          1059 3225 296 2700 111 1058
          1356 1315 1109 2320 4424 425
          944 3046 4220 307 5404 927
          2648 1691 5082 945 1192 5779
          5257 4221 2344 1170 1789 385
          1405 308 2679 720 59 839
          3089 844 1695 2620 2888 3289
          1568 2799 3670 3440 1276 3331
          4440 3332 1294 4088 1060 2493
          394 4521 2590 316 310 508
          4089 2520 2106 2676 1926 331
          2982 317 1406 1535 2237 5509
          1014 2923 4631 5720 1319 5426
          4518 2649 4810 3241 5429 4799
          4087 3223 3554 2886 4567 3710
          1210 3707 459 1008 3838 3149
          2522 5778 169 1171 3201 3951
          4899 580 2339 1924 2854 14
          5139 3205 2135 4732 1108 5751
          1826 3603 5180 4504 4479 5178
          2011 2827 3709 4222 3645 901
          1450 3510 1534 1811 5702 1742
          5289 5701 4394 2776 1957 2136
          178 2593 1958 2438 1959 5060
          1850 423 3309 902 1790 1505
          1317 4842 4346 25 3155 4855
          3556 1117 2040 3152 2341 4524
          3473 701 3909 3980 4897 4306
          3403 3153 2735 1508 154 4668
          5640 3267 3534 4267 2446 3024
          3506 4520 3263 585 3561 335
          4441 3222 1144 309 1449 2255
          3093 3981 3509 2345 2891 3264
          1448 221 329 509 3206 2625
          834 530 112 3837 5606 2526
          1659 2801 1747 830 3906 3250
          3265 3580 393 5083 4800 610
          4009 1872 206 1506 946 2082
          2447 2041 5122 170 5355 4107
          1208 2677 4986 2166 2418 2651
          2209 324 2254 1293 1536 2234
          180 3953 1507 2803 2702 2083
          1010 4633 789 453 2733 1787
          2922 3236 1120 3442 5179 4568
          1061 2009 2492 426 5681 3487
          1788 4522 454 3220 3308 4050
          1268 661 4153 3671 3606 5754
          837 5752 4152 4840 1987 5106
          457 175 5346 1084 1323 1447
          2212 5058 2981 4965 1745 2925
          2340 2701 23 3752 4856 3955
          3879 1275 5040 905 2850 2039
          554 5537 3731 2678 3912 1191
          223 1876 3486 932 723 5208
          1873 56 3045 1322 1694 3604
          2547 4584 2473 488 4305 1016
          903 4223 2703 3558 1339 174
          4733 3288 2624 3607 1318 61
          835 3952 510 728 1744 1122
          4130 2211 3472 34 3292 1379
          3581 854 4858 3419 1340 3508
          5084 4669 845 4307 4347 2394
          934 2058 4777 1928 4987 2061
          5540 458 2521 3404 4 557
          1662 4857 1207 2849 1378 3266
          452 4129 1988 1252 490 2233
          1431 4923 3695 3992 2294 3090
          939 567 3154 4109 935 5645
          4110 1172 3164 3159 1570 3711
          586 332 325 937 4325 4525
          5290 3753 301 3512 4501 4480
          1274 2857 2828 1239 1875 54
          450 1358 204 897 4090 5753
          313 300 3355 1715 521 3356
          5059 1407 3443 2105 5579 5755
          1716 5488 1792 2924 5348 1476
          4482 1658 2420 5580 898 942
          270 4425 584 3176 5063 4838
          3751 4776 4667 1593 1477 1955
          3991 3064 2081 523 2846 1746
          542 5466 3708 1009 207 1874
          314 3244 3242 3984 4308 899
          1923 2545 2364 3605 3065 3773
          1794 631 2448 724 2892 2680
          3091 556 5510 3269 1829 2653
          3562 3985 5641 3307 2949 3474
          2084 208 4503 833 3268 35
          1071 2059 1478 790 3163 3092
          1509 1569 2361 105 949 1065
          1211 796 1537 730 1961 3158
          2060 4010 5209 4635 1896 1848
          2927 1083 2705 5259 2257 115
          3446 5329 3694 2167 2950 3624
          611 846 2852 4924 1793 3880
          4898 4670 2161 566 2137 2160
          395 4072 5642 3560 2594 2626
          4073 1965 3555 318 1320 1636
          2887 1018 489 2235 1382 50
          3204 5182 853 1088 940 900
          1692 5349 3754 2362 5141 1124
          5233 539 3004 2342 3514 2258
          1086 3852 321 725 4309 2495
          1571 2256 3354 320 1609 2010
          4844 1213 116 2652 1209 3096
          2139 4715 2236 5533 726 1809
          5558 205 1661 4859 938 2292
          1762 3911 3048 172 718 1410
          109 4396 102 3623 304 3313
          3982 1960 3047 3310 3986 1063
          2926 3557 5543 487 3286 951
          396 4395 2165 4442 2548 3983
          2592 3755 943 1173 1068 3156
          5258 57 3311 3157 1174 60
          3293 4181 3559 3097 3511 2365
          729 1175 3732 2595 1697 3444
          1069 2682 2397 4634 3733 2777
          3734 2347 2802 3712 2628 4502
          5330 1119 3910 117 5492 3287
          2107 635 3954 559 4131 5536
          1341 2596 2109 4543 2829 1851
          1226 4526 1791 583 1212 4268
          2739 1897 1927 856 113 794
          4801 2804 2162 4327 850 1512
          245 3673 5385 1013 2948 2742
          1147 4076 4246 2629 1240 3160
          3536 5234 5432 305 1665 3713
          3445 5657 4505 1085 4548 906
          3002 4012 15 3003 3006 4111
          4180 5085 5489 3094 2086 5465
          4843 522 1115 5086 1698 3608
          2494 5014 5625 2259 326 5013
          171 716 1611 4734 3802 553
          5491 4841 1849 2239 2525 1277
          1925 1409 2343 5757 2654 4426
          424 2622 2549 4224 2363 2012
          315 4944 1610 3829 1878 222
          3994 3853 1114 3515 1408 838
          3050 3245 2498 687 3025 3772
          1359 1432 2890 118 1146 271
          1812 1066 3988 5544 1748 2263
          4570 5511 3095 1017 4251 2684
          461 4092 2260 2497 1298 2778
          1072 1451 1064 1148 4348 4051
          2524 398 5539 3648 5277 1573
          2551 1626 2111 540 3672 2998
          1638 5467 2213 2388 427 3881
          2476 4580 177 4671 5331 5
          3270 4603 4779 4328 2527 1214
          4075 3854 2238 3714 1193 5291
          4269 1989 2856 4326 319 4052
          1510 4506 4651 1241 5756 3405
          107 2853 3067 3007 4154 1956
          5494 3178 2496 4351 4295 731
          414 1810 852 2737 5586 3177
          1657 4988 4672 3312 1572 3913
          5626 4397 941 541 2858 5187
          2623 3161 511 3956 1253 5018
          328 3803 2322 5107 2164 2262
          3839 5108 5538 843 306 3291
          3930 3290 4182 2738 1827 1121
          3334 3987 58 5435 1070 1118
          1696 3247 4011 3513 3517 5237
          3535 4925 104 323 5607 330
          1299 5628 2683 1795 2874 3068
          1324 3989 634 5704 2477 4675
          456 4571 3564 4778 4637 5351
          3066 1612 5140 5430 2855 4529
          840 3005 2736 3180 3130 244
          4900 4183 5431 3051 3649 3098
          4330 2740 2478 1929 1296 4077
          5608 4132 5181 3026 5042 3272
          3646 1215 5541 3407 3423 851
          5124 3335 5044 5262 5293 5490
          1877 4735 1116 1828 5041 2704
          1243 2630 5402 4349 1297 5239
          686 3855 633 664 4966 4991
          659 558 1360 5365 5261 4372
          3899 947 5513 5559 727 4226
          3162 5809 322 5183 2655 3246
          4902 327 3805 1194 3900 3774
          2656 5723 5125 3806 4605 5782
          2062 5087 5332 3165 2597 3179
          3563 948 3475 4990 3610 4371
          5210 1067 2110 1015 4989 5434
          5184 4445 5142 2552 5405 4249
          3990 5386 2741 5260 247 3052
          1511 795 2085 4225 5240 5043
          3804 3422 3582 5123 5468 3914
          5016 4781 4861 176 4901 5295
          4133 3383 5684 5627 5708 3958
          5406 5722 5512 4636 1964 4845
          2627 5758 101 2346 5292 5263
          3049 3856 3995 4270 3696 3131
          4604 4399 3516 3777 4862 4674
          3271 3451 1254 3626 4780 4227
          4946 3779 3609 2893 2875 5683
          5015 4813 721 3674 2043 1962
          2475 5721 636 4760 5686 4443
          5582 5088 2295 4673 4459 4802
          5310 1411 5212 1242 5780 51
          3675 1663 4352 4736 4581 5438
          4398 1963 1664 5366 3449 4483
          5497 5542 2264 3780 5350 4184
          3647 5703 5514 5706 2296 3840
          3450 3775 2366 5235 2321 5294
          4582 5211 4014 5781 3898 5808
          4013 3132 3957 4945 2743 1412
          5333 5685 5061 179 4812 4091
          5724 3249 4528 4530 3758 4331
          2367 5436 4350 5725 2168 5643
          1123 156 2805 2108 4329 3489
          5545 5609 5493 4968 5583 2214
          5581 5687 3756 2215 2261 5384
          4498 5383 5185 5515 3421 5367
          4947 4155 1479 4134 2779 4860
          4969 3406 5017 1637 5126 1574
          5560 5296 5045 4967 2449 3993
          2013 4814 5561 3447 5810 3778
          531 3488 2014 3697 5546 3857
          4248 4970 4228 1513 5644 3625
          3448 4759 2348 4025 4549 4606
          2398 3384 4550 3757 5309 5236
          5127 5238 5469 3650 5186 3336
          5705 4583 3781 3776 4247 4250
          5213 5046 3248 5547 4834 4373
          4607 5089 2873 5214 5707 5387
          4992 3841 460 3337 4782 1087
          5062 4863 5437 3698 5584 1195
          5439 5308 5709 2169 1126 1129
          953 960 2018 2685 955 974
          2300 738 862 3388 3386 2951
          1967 1073 1968 741 612 3651
          3611 674 2686 1969 4971 2632
          5658 3340 2115 3339 2895 2746
          3099 3996 1596 670 1597 673
          1559 4374 6 1282 975 2116
          1752 2170 348 7 119 3273
          462 1179 3295 2112 3027 4082
          857 120 337 4015 132 524
          338 3294 4252 355 2349 1575
          336 3699 3314 5517 5047 591
          189 4353 4074 2808 3627 5811
          3882 3424 2023 5334 2301 4400
          1971 1540 1933 64 122 3100
          121 1990 2015 4783 3299 350
          5548 2064 1931 1514 248 2421
          3537 2368 1796 4993 4093 1343
          4427 3628 343 2479 5264 4903
          739 1595 3133 2016 213 4053
          3358 2744 5589 1797 1518 252
          1719 2298 400 2323 4676 613
          2020 67 1255 3629 2862 2550
          66 2265 2859 1516 3053 4551
          2555 1519 1492 732 4531 1639
          5407 210 211 1699 2399 1517
          4815 688 549 733 249 124
          4816 4186 3134 1578 134 1970
          36 3338 3583 4761 1177 543
          4484 1149 3167 5155 735 2631
          2422 3135 341 494 4737 2830
          3359 1021 5216 1279 2401 736
          2266 251 749 5368 1020 665
          1538 3274 5389 2952 130 3452
          1852 3454 5091 801 747 5388
          864 1555 1853 224 1414 3275
          1898 2024 2173 5610 3455 1022
          3385 1128 1539 2177 1749 5335
          4254 3343 432 257 2482 209
          4356 2087 4156 1342 797 1125
          3807 3298 513 1326 5516 5138
          966 3361 512 3783 1301 1361
          2297 392 3736 1417 3069 5215
          4446 3782 2480 492 2780 863
          5019 3676 4552 2687 4608 5021
          803 2369 1433 637 3760 2953
          562 3389 2956 2063 2017 1581
          1972 560 2928 5441 1280 3715
          4355 1515 3585 1723 4311 1766
          2499 429 799 5064 4185 4229
          1012 3184 568 3915 1577 640
          493 3716 1769 2809 4926 2553
          1386 4187 1178 2528 2634 1256
          68 37 3168 3252 2689 5241
          431 157 2216 3883 4078 802
          666 5783 5470 4448 5297 2241
          491 2954 4803 1480 1580 1904
          3186 2176 1935 1973 2657 545
          4485 1541 1452 2178 212 4188
          3453 3070 3884 3809 1613 1229
          3960 4738 1930 4253 3183 4994
          4230 1542 4083 1454 2747 2806
          2912 3518 4028 1345 969 858
          3301 1830 4135 957 2299 2026
          3032 1615 3491 3759 2899 2067
          4447 403 798 561 590 2065
          3028 2117 5549 907 744 4569
          4817 689 1815 4401 2068 4818
          5020 428 2426 2217 3539 1722
          4639 2427 2179 434 5588 1416
          5587 1672 3584 4995 3456 3224
          4054 1490 5611 1750 2180 2302
          2860 3644 2958 4354 2898 2929
          804 3490 2500 5311 1278 26
          669 3962 357 588 3181 352
          430 1721 2481 4739 800 963
          1413 2598 126 1751 532 401
          2748 5564 1453 2983 1900 3717
          272 1325 617 5646 2745 2876
          2172 3959 3565 5440 1579 3315
          5408 2877 3185 1545 2529 3630
          1616 5812 4821 3808 1228 4313
          1544 3031 3296 4357 3811 5265
          2021 3297 1976 441 956 3588
          3136 3226 644 3519 1344 5562
          1641 5784 3700 952 860 3107
          4271 4609 1130 3677 2423 3166
          2807 433 255 3104 2603 2022
          1283 2599 3735 3961 5128 1642
          2784 959 1300 1127 2782 3392
          5391 3360 1383 2600 5218 5612
          1257 587 5495 1817 1384 1385
          4231 2531 2781 2184 2750 1415
          961 1667 615 2027 4819 2370
          1627 2240 639 806 4403 1934
          908 5090 641 2219 3276 123
          752 2900 1481 2114 734 3492
          1768 2602 1724 340 5048 4638
          5726 4875 465 1281 3408 1543
          2831 5217 3182 2140 4572 4820
          4312 1668 2113 1831 253 1456
          4703 2141 2930 4095 737 2324
          2894 4585 3101 5785 3917 5156
          1854 3719 2425 638 5565 4846
          3587 675 4876 4688 3316 4929
          4927 4375 5688 1089 5614 1932
          3812 4137 3387 1753 435 4998
          2861 4996 1899 181 1725 2863
          2659 1285 4026 1364 4079 1074
          867 4158 2218 3030 2785 4332
          2171 910 3918 254 1176 3302
          861 1576 5496 593 805 3210
          5392 5336 2658 5563 743 3277
          133 3426 4822 4784 750 1671
          1363 183 859 3427 4314 356
          4136 1598 5813 4429 185 1546
          1670 1230 4316 2019 4055 1720
          463 3718 5065 1418 5443 1614
          2025 5471 2810 128 250 3586
          1227 2955 3029 1767 868 2501
          4232 2451 2400 3229 1491 27
          672 3652 5312 4094 2554 2556
          2557 1666 2267 1387 3341 5298
          5242 184 125 742 2185 3207
          358 2749 3810 642 690 1520
          2242 2088 1855 4740 466 514
          3916 3540 4016 3390 614 1814
          1700 1798 1599 2787 909 976
          2268 5629 1019 2931 546 4716
          1286 3476 4189 4333 467 4785
          4081 3428 4080 4256 2706 2174
          63 349 2424 2530 589 1388
          865 5390 4997 3493 4702 1455
          3885 958 339 954 5613 1362
          2783 5442 127 1133 1389 1693
          3932 5659 746 1150 525 399
          1434 2558 3538 17 5473 16
          5278 2532 4640 2428 5394 256
          2069 1991 911 495 2143 1701
          3678 616 3187 3409 1937 5550
          3429 2688 345 962 1327 2903
          1557 3391 1617 4823 3520 2660
          1023 3254 1284 3251 3227 342
          353 2633 3208 964 544 346
          1901 1365 4904 4114 3720 1640
          1902 3102 4610 1992 2186 1832
          464 5689 4741 2175 668 1856
          214 1903 965 1131 4653 2089
          1879 2350 4507 3919 4460 4272
          1231 2502 4743 5518 3931 2373
          4402 4255 62 1132 3103 973
          402 5049 970 3209 2707 65
          3425 2066 182 1813 4273 351
          3105 1669 2220 2601 3679 4315
          2604 745 4428 3762 751 1643
          4742 5472 2561 3494 2902 3362
          4017 748 871 1369 2560 4587
          4704 2957 2812 3999 1370 1258
          1390 4786 3631 866 3072 4721
          3920 2534 3998 1993 5188 2896
          4972 1618 972 2897 4096 667
          2044 1090 129 3842 1905 69
          347 4928 4680 1816 3680 354
          1857 967 4677 2752 1457 1975
          2351 4679 4157 5219 5369 404
          971 1880 3347 3784 3785 5067
          2119 968 4027 2275 4905 4486
          3787 187 3109 5109 3786 4973
          5093 3106 2864 3054 3814 592
          2959 344 4689 2372 5710 2243
          4652 3317 671 740 3228 5647
          4553 2751 2483 5370 3813 4358
          2636 2144 4705 3188 405 4296
          5158 3843 4532 5409 4718 4678
          4719 1558 3278 2562 2533 4208
          186 4462 4950 2901 869 3253
          4465 4464 2181 5433 2142 3458
          3110 5444 1556 3457 1328 5566
          2182 4097 5568 4847 5475 3935
          5066 5068 2371 870 3108 3071
          5760 1673 4999 912 4274 5299
          131 5759 4444 5397 4681 3055
          5069 3300 3211 4032 5220 2960
          2559 4825 4744 5727 2635 2454
          1818 4948 5474 4258 188 4360
          5337 5110 5094 5498 2303 2325
          2811 5648 3921 5371 3541 5787
          4746 1974 3303 5393 4706 5728
          4747 3033 5567 5092 5000 4319
          643 2183 2878 3761 3431 2932
          2118 3430 4404 4787 3858 4824
          3364 2933 5519 1419 5711 3997
          5022 3934 5660 4359 4586 4317
          4717 5157 2832 5160 3844 4621
          2455 4467 526 1024 3816 3721
          5024 618 4949 4611 4362 3459
          4276 5023 5788 4745 691 3681
          4461 4654 2453 1938 3137 4318
          5159 1483 3815 3963 3788 3933
          3363 1391 4612 5112 2269 1302
          4233 5814 5520 2984 2187 1936
          4877 5569 4112 5786 2786 5372
          2450 4113 3859 3589 5114 2452
          2961 2090 3886 1482 5690 4463
          4361 2484 4029 2503 4030 5815
          2788 4138 4031 4466 4878 4655
          3111 4826 4974 3056 3365 4788
          5266 2091 4720 4275 5313 5521
          4257 5395 4298 1392 5691 2402
          4405 4115 4234 619 1881 5027
          4951 4018 4554 5338 1994 5499
          4707 2456 5028 4033 3073 2753
          5396 5615 1674 3964 5111 4190
          4159 5029 5662 2403 3189 5095
          5500 4722 4879 1196 5025 4297
          2457 4508 2563 2834 2833 4310
          4723 4209 1025 4656 5398 5026
          2458 5570 4210 4827 1420 5113
          5761 4320 5666 1833 5663 5661
          4952 5665 4804 5649 4555 5664
          5571 4622 5030 3568 753 1858
          779 1181 1180 978 2690 676
          4932 1134 3523 4377 1977 5243
          1979 4690 1773 4881 1563 4880
          5501 981 2459 5502 873 758
          1907 146 2190 759 5189 2197
          761 1676 876 781 375 2568
          3212 148 1600 1908 4099 1834
          2431 2905 1995 4930 5522 258
          3034 1348 2305 5411 2404 3059
          3116 3366 137 135 4533 5523
          1135 594 3495 2835 367 1091
          3113 263 5446 4556 3702 2605
          2962 1549 1437 1182 1835 1770
          2907 3280 409 136 3848 1582
          259 3846 4789 5445 150 754
          369 2816 984 1216 3965 696
          913 3010 1996 2908 4098 3410
          3936 3342 620 3114 4192 4590
          1561 3522 1564 755 1329 2504
          2205 1366 138 227 5050 4235
          550 2092 4487 2880 872 2093
          1726 4509 3966 1151 496 1152
          4588 4378 3567 2145 5730 3009
          3967 1799 3632 3818 756 260
          360 1461 1906 1999 1982 1305
          5096 261 3968 2506 361 5503
          2429 2817 987 990 1882 3190
          914 3138 226 371 4933 3526
          2968 2815 2196 5731 3412 4449
          3318 140 1912 2573 264 5449
          5448 216 1550 4278 2965 1914
          998 2508 992 2045 1030 29
          1978 3682 4535 193 3057 4642
          3058 470 5591 2879 1422 2909
          372 2200 770 4694 1940 5221
          469 762 4748 4790 5339 4191
          3860 2911 2272 265 1484 4020
          764 1198 772 1423 4139 516
          877 4791 502 2406 1997 988
          5712 1708 2376 2409 3887 5071
          4708 262 4036 3191 1861 596
          471 1303 1679 5001 3393 5733
          3279 2120 5315 1183 5314 4865
          4641 1548 4864 2271 3845 5572
          3701 985 1218 5097 4277 4749
          3115 1645 8 376 3683 773
          4573 3937 1841 1771 2910 5162
          473 4829 1459 195 884 4056
          1647 4931 2985 3525 2536 2756
          766 4908 515 4534 1026 3569
          2189 5222 4468 1754 266 2326