<?xml version="1.0"?>
<VTKFile type="UnstructuredGrid" version="0.1" byte_order="LittleEndian" header_type="UInt32" compressor="vtkZLibDataCompressor">
  <UnstructuredGrid>
    <Piece NumberOfPoints="5331" NumberOfCells="5331">
      <PointData>
        <DataArray type="Int32" Name="id" format="ascii" RangeMin="1" RangeMax="5354">
          2283 1157 2712 2155 1466 2841
          4323 81 2995 2050 3326 1843
          820 2054 3001 704 700 333
          2993 3826 3080 4414 2842 1806
          814 921 2227 719 2382 1947
          604 2097 2437 706 2055 2049
          2128 274 4647 1441 920 4338
          79 2716 1098 1590 95 1236
          481 1142 4978 2692 1037 1203
          276 41 80 4063 2586 92
          627 2916 2247 2246 1202 4290
          275 1048 2693 2844 3945 1288
          4172 2414 3596 2840 3398 3285
          1735 5076 3284 2516 3635 3469
          287 240 161 230 5149 1865
          82 4287 3739 2051 4216 929
          571 277 1080 2668 1884 2281
          1101 2990 2248 280 1631 1034
          3433 4625 707 3216 3399 1430
          386 3120 4852 1399 2694 2971
          1527 5200 3415 3173 3434 2650
          1889 3661 2711 4170 891 3480
          582 235 2310 1247 476 655
          2095 2767 2487 3436 5201 1042
          1035 84 2076 231 289 2229
          411 445 3704 3470 2333 3825
          2436 94 4340 2334 200 479
          3327 4648 1807 4557 387 2517
          1271 1353 1186 2940 4938 163
          2100 2384 477 3740 234 4765
          3400 815 818 1220 705 2664
          5119 2413 233 2228 821 90
          702 2356 4086 2355 2156 1842
          1165 2282 1605 243 2714 1097
          1887 482 1250 1444 291 2440
          4664 2101 3662 2250 2129 3214
          3324 573 5284 703 5053 1168
          1357 4062 2769 784 2709 1352
          1528 1 3742 1866 2717 2616
          1445 4339 2308 505 1443 4729
          1100 3401 2360 4416 45 4558
          1944 1685 4624 1945 4289 4420
          4435 1045 1269 4661 3796 1245
          2696 2075 1005 2434 3172 1185
          294 4979 1917 3215 654 1102
          2383 3435 4697 4662 4040 1529
          2472 5248 2435 1246 2005 4217
          2992 1372 1777 3238 2006 4960
          2972 3122 605 47 1497 2249
          4200 4959 4893 3872 782 715
          21 295 786 626 3121 3015
          1373 3471 2823 4481 4660 1918
          2666 2941 2543 1470 1778 536
          572 2335 268 2945 3832 783
          657 3093 4626 709 2942 4341
          2358 1187 2697 2885 4512 2721
          506 1966 4171 1374 3123 656
          2056 3875 5318 3016 2766 712
          528 1251 292 3 3437 4797
          3873 3892 2 2729 286 3833
          4199 3893 2583 537 2133 4891
          1400 1244 4198 1270 1043 4419
          3502 3728 4126 4943 3599 3259
          4324 1160 1684 1184 1033 1166
          3040 4292 1038 4418 1984 1104
          2973 444 1686 4147 1032 2053
          2975 1237 202 418 681 164
          5303 1371 1951 4173 653 2991
          2396 2132 3258 448 4598 3349
          1946 892 2695 2540 5270 3573
          1442 5202 1844 2052 2103 1765
          3083 4806 199 155 4303 1158
          416 3727 83 1498 4005 5054
          1985 3217 1036 4663 2309 1565
          1737 4475 3688 3798 4617 3618
          1738 2381 2944 1428 2096 278
          2868 924 535 2541 817 1689
          4696 2643 2032 5321 1249 1736
          4542 2642 678 2882 2976 4579
          2077 48 2974 1502 4342 1310
          4304 5204 2131 3905 1201 3481
          4918 4415 299 2665 5134 4286
          2824 628 3503 819 5148 2710
          1335 3800 3977 2380 2357 2718
          3978 3039 237 4388 4293 3468
          1401 4545 4288 3928 2994 53
          3637 2917 2770 3636 2996 3850
          5152 4004 4892 3876 478 1919
          1398 2387 2332 2138 1885 2312
          1040 609 1163 232 3947 2313
          5205 829 1041 552 4514 3597
          1376 1161 2099 2585 1501 1531
          1292 412 2488 2918 3946 1427
          22 167 683 1780 483 1248
          2845 3574 3874 4515 417 31
          1002 5170 3877 4041 2337 2539
          86 2584 1426 3402 2667 1099
          4294 2206 3705 2663 2385 2034
          2999 2883 2102 2078 4174 4665
          297 5151 2286 4627 1500 4003
          4766 824 793 279 480 5150
          5319 1949 2919 3744 42 3769
          1504 4807 1920 3528 3325 787
          4436 4218 5135 1779 4042 3619
          1499 4666 2795 2768 925 2386
          2251 2314 168 1567 4148 1162
          4417 3663 574 2843 4434 2977
          3371 388 4698 713 4599 1189
          3729 577 1321 893 3768 1739
          1782 3416 575 679 162 87
          3743 2284 504 3082 4066 3482
          3085 2033 813 1051 3124 5249
          520 1530 3237 3638 2311 1205
          2848 4065 1313 422 1291 1950
          4600 1760 2104 1781 1759 3664
          2031 5172 1783 4798 1632 576
          684 1892 1159 4980 1886 1891
          2080 1377 3797 1471 5055 3081
          708 1047 3261 3640 4263 2439
          5011 2315 1653 32 3741 3218
          4731 816 85 2491 282 2098
          1654 1868 3799 2130 5203 2287
          446 4894 3198 1081 1167 455
          680 3770 220 2669 2713 3620
          4497 4544 1785 1867 49 2719
          4919 3306 1714 1354 4921 2079
          5056 710 390 3767 419 4476
          1429 1204 1503 1952 3017 2715
          1145 2671 285 4730 2443 1044
          4149 3146 507 922 3018 1607
          389 4559 420 1039 44 2946
          3328 93 1049 4477 3601 4291
          1634 3240 5271 1337 1031 12
          2847 785 4262 4175 3260 2316
          3689 3350 4939 1472 1888 4628
          1311 2390 4650 2441 1190 2588
          658 3745 2290 1007 4438 238
          88 894 2978 1566 3666 5320
          827 4478 606 2359 2722 822
          1713 2489 3019 1052 4204 1688
          484 4686 1986 529 3948 2673
          2939 1948 203 5077 2670 2157
          2644 1869 714 5230 2415 173
          1633 2230 2159 2724 3086 1403
          3801 5173 2771 2471 153 1606
          1004 2542 4242 2869 1381 2617
          3949 2288 2208 4920 2285 1375
          1289 284 630 5326 1784 2289
          4064 4961 2490 4767 2036 3665
          1473 43 4895 160 2825 2317
          2035 5306 4422 3950 166 4768
          2674 1402 2938 2943 1050 3929
          4940 281 3021 3377 2589 5323
          2416 2997 4044 825 2587 1687
          3329 2158 2796 2057 4513 629
          1474 1290 5153 4045 1763 2007
          4982 3621 607 4067 3373 5286
          4618 1054 5325 2336 682 3639
          3598 2870 1890 46 2231 2395
          165 5038 1312 3828 2518 3084
          923 4421 4201 5252 3417 3504
          1921 4241 447 1334 895 823
          3484 283 1164 3600 1003 3000
          2884 4516 5250 89 4178 2698
          1761 3747 4219 4202 4047 4205
          4244 3749 5322 3379 1106 1655
          2444 5136 91 4853 4006 4177
          826 4941 3381 2772 3088 1893
          3044 3576 4343 1053 5039 578
          3041 5206 3529 5171 3575 2672
          4527 11 3372 1046 4699 2947
          3382 4873 5012 4176 5327 3239
          3483 2920 5175 2826 4423 4560
          1336 3262 3577 2134 828 4203
          4601 2338 236 3894 1105 3200
          1006 4563 4602 1103 3199 4771
          1845 3530 1221 2720 1188 4981
          5285 2726 1870 5078 4245 1591
          5079 896 3020 711 5342 5229
          3827 5251 1764 3746 3374 3087
          3126 5304 5253 1082 5305 4546
          4499 2979 4547 2038 4437 288
          5324 3125 1272 4984 4389 4896
          4835 421 579 1465 5254 4264
          4769 5176 1532 1554 5121 3668
          3622 4619 3532 4770 5120 4043
          2519 290 2291 1922 4046 4344
          5154 4370 3063 5274 4700 4649
          415 4127 3351 3706 3352 293
          2442 4561 2798 3147 2037 2252
          3148 3834 449 1786 3748 3602
          1222 4007 3878 3691 2318 4049
          4458 4392 4069 3485 5174 2207
          2618 3641 4808 4391 1690 3667
          4854 5137 4620 4393 4922 3896
          3531 4962 4439 1446 4837 4773
          5104 4983 1608 4243 1592 4390
          3771 2797 4772 5345 4048 1894
          4872 4963 5307 1953 4562 4517
          4630 3380 3690 3439 4565 1895
          5207 2699 5080 1740 4874 3851
          2645 4150 3438 4151 4713 3375
          2389 4701 2417 3533 5105 4687
          2725 2921 3376 201 2773 3642
          4024 5343 4774 4265 5344 4564
          1846 5272 5273 3330 3127 3418
          4068 2619 2727 2723 4629 3042
          3043 3897 3895 4836 5231 4106
          4809 1143 5275 5081 4266 3022
          3378 3578 2728 4757 3835 1273
          4964 4008 3836 4712 4070 4758
          5057 5276 1718 2392 2008 2445
          3150 2621 3551 4108 4071 1267
          1238 3202 2730 3203 1107 4207
          926 1056 1954 1206 663 1808
          1847 930 334 303 2544 1057
          1112 1113 1594 2851 950 1110
          110 2732 3553 844 4500 608
          3333 3507 2681 832 311 836
          106 2232 2391 4632 1656 2646
          485 2800 1062 2253 239 791
          1475 3219 1169 2293 97 3243
          5232 3128 312 2210 1404 3692
          3441 1533 564 3693 298 486
          52 2419 1223 96 2522 662
          3669 114 2871 660 936 5255
          5288 2774 3174 792 685 2889
          1055 3871 928 904 847 4519
          5177 14 2980 1111 4942 391
          1225 5328 4206 1338 2775 3908
          98 1741 3505 3750 5256 632
          4839 831 108 55 1871 4714
          1011 2731 1355 1316 100 3221
          451 581 5287 413 2393 1717
          3579 5347 5289 4775 1660 2734
          1534 2523 4566 178 4128 3730
          2163 3175 3023 2872 2319 3151
          717 3353 1295 931 3907 1314
          4811 2647 3643 1224 4523 4179
          2675 2591 24 242 2546 555
          538 3979 933 4985 3420 241
          1059 3225 296 2700 3552 111
          1058 1356 1315 1109 2320 4424
          425 944 3046 4220 307 1691
          927 2648 5082 945 1192 5257
          4221 2344 1170 1789 385 3263
          1405 308 2679 720 839 3089
          1695 2620 59 2888 3289 1568
          2799 3440 1276 3331 4440 3332
          1294 4088 3670 1060 2493 394
          4521 2590 316 310 508 4089
          2520 317 2106 2676 1926 331
          2982 1535 1406 2237 1014 2923
          4631 1319 4518 2649 4810 3906
          3241 4799 4087 3223 3554 2886
          3710 1210 3707 459 1008 3838
          3149 2418 397 169 1171 3201
          3951 4899 580 2339 2854 302
          5139 3205 4732 1108 1826 3603
          1635 4504 4479 4345 5178 2011
          2827 4222 3645 901 1811 1450
          3510 1742 1323 3904 1957 2593
          1958 2438 1959 5060 1850 423
          1743 3309 902 1790 1505 1317
          4842 4346 3155 4855 25 3556
          1117 2040 554 3152 2341 4524
          3473 723 701 3909 3980 4897
          4306 3403 3153 2735 1508 154
          4668 1339 3534 4267 2446 3267
          3506 585 4520 3561 335 4441
          3222 309 1449 2255 1144 3509
          3981 2345 2891 3264 1448 221
          329 509 3206 2625 112 834
          530 3837 2526 458 1659 2801
          1747 3250 4857 3265 1378 3580
          393 5083 4800 610 4567 4009
          206 1506 946 2082 2447 2041
          5122 2677 170 4107 1208 2209
          2166 4986 2651 324 2254 1293
          3953 1536 2234 180 1507 2803
          2702 2083 1010 4633 789 1924
          453 2733 1787 2922 3236 1120
          3442 5179 4568 1061 2009 3487
          2492 4522 2135 3220 3308 1788
          4050 5180 1268 661 837 4153
          3671 3606 4152 4840 1987 300
          3709 1715 5106 1407 457 175
          5346 1084 1447 2136 4394 2776
          4482 1658 2212 5058 2981 4965
          1745 2925 2340 2701 23 3752
          4856 3955 3879 1275 5040 905
          1593 2039 3731 2678 3912 1191
          223 1876 3486 932 5208 2547
          1873 56 3045 1322 1694 3604
          4584 2473 488 4305 1016 903
          4223 2703 3558 174 4733 3288
          2624 3607 1318 61 835 3952
          3024 510 728 1122 4130 2211
          3472 1744 34 3292 1379 3581
          854 4858 5084 3419 1340 4669
          845 4307 4347 2394 934 2058
          4777 5209 1928 4987 2061 2521
          5259 3404 557 1662 830 1207
          4 2849 4129 3266 452 1988
          1872 1252 490 4923 4670 2233
          1431 3695 3992 2294 3090 939
          567 2594 3154 4109 935 4110
          1172 3164 3159 1570 3711 586
          332 937 325 4325 4525 5290
          900 3753 301 4501 4480 1274
          3512 2857 2828 426 1239 1875
          454 897 1571 54 450 1358
          204 4090 313 521 4569 3355
          3356 5059 3443 2105 1716 1792
          2924 5348 1476 1809 898 270
          942 4425 584 3176 5063 4838
          3751 4776 1477 3991 4667 2850
          3064 2081 523 2846 542 1746
          3708 1009 207 1874 314 3244
          3242 3984 4308 899 1923 2545
          2364 3605 3065 3773 1794 631
          2448 724 2680 3091 2892 556
          2653 3269 3562 3985 1829 3307
          2949 3474 208 4503 833 1071
          3163 1478 3268 790 3092 1509
          5330 3508 1569 2361 105 1065
          1211 796 1537 1961 949 3158
          635 2060 4010 4131 4635 1896
          1848 2927 1083 2257 115 5329
          3694 2167 2950 3624 611 846
          2161 2852 4924 1793 3880 4898
          566 2137 2160 395 4072 3560
          2626 4073 1965 3555 318 1320
          2235 1636 2887 1018 489 1382
          50 3204 853 1088 940 5349
          1692 3754 2362 5141 1124 4180
          5233 539 3004 2342 3514 2258
          1086 3852 321 725 4309 2495
          3354 320 1609 2010 4844 2494
          1213 116 2652 1209 3096 5013
          716 2236 4715 4734 3802 726
          2420 205 1661 4859 938 2292
          1762 3911 3048 172 718 1410
          4396 102 3623 1955 304 3313
          3982 3986 3047 3310 1960 2363
          1063 2926 487 3983 3286 951
          396 2592 4395 2165 4442 2548
          3755 943 1173 1068 3156 5258
          57 3311 3157 1174 60 3293
          4181 3559 1146 3097 3511 2365
          729 1175 3732 3444 1697 1069
          2682 2397 4634 2084 3733 35
          2059 2777 3734 2347 2802 3712
          2628 4502 3287 1119 3910 117
          730 2107 3954 559 1341 2596
          2109 4543 2829 1851 1226 4526
          1791 2705 583 1212 2739 1897
          1927 856 113 3446 794 2804
          2162 4327 850 4801 1512 245
          3673 177 2948 2742 1147 3270
          4076 1013 4246 2629 3536 3445
          305 3713 5182 4505 1085 4548
          906 3002 4012 4052 3003 3006
          4111 5085 3094 2086 4843 522
          2256 1115 5086 3608 722 5014
          1698 326 4295 2139 171 1611
          553 4841 1849 2239 2525 3312
          1925 1409 2343 109 2654 4426
          424 2622 2549 4224 2012 315
          3829 4944 1610 3557 222 3803
          3994 3853 1114 3515 1408 838
          3050 3245 2498 687 3025 3772
          1359 1432 2890 118 271 104
          1066 3988 1748 2263 2595 4570
          3095 1017 4251 2684 634 2260
          1064 1148 2497 1298 2778 1451
          456 4348 1072 4051 2524 398
          3648 5277 4268 2551 1626 2111
          3672 2998 1638 540 2213 2388
          427 3881 4580 4671 5331 3098
          5 4603 3160 1240 4779 4328
          2527 1214 4075 3854 2238 5234
          3714 1665 5291 1989 2856 4326
          15 319 1510 4506 4651 1241
          3405 1828 2853 3067 3007 1243
          107 4154 1956 2259 3178 2496
          731 414 2737 633 1810 852
          664 1657 3177 4988 4672 1572
          659 1277 4397 941 541 4372
          1360 2858 5187 2623 3161 511
          3956 1253 5018 328 2322 5107
          2164 3839 1878 843 306 3291
          3290 1121 4182 2738 3930 1827
          3334 3987 58 1070 1118 1696
          3247 4011 3513 3517 5237 1812
          4925 3535 5087 323 330 2874
          2683 1299 1795 461 3068 1324
          3989 4675 2477 4571 3564 4778
          1067 5351 3066 1612 5140 2855
          3005 1573 840 2736 3180 3130
          3990 4900 4183 244 3051 3649
          2476 4330 2740 2478 1929 1296
          4077 4132 5181 3026 3407 3646
          3423 851 1193 5124 4269 3335
          5044 5262 5293 1877 1116 4735
          5041 1297 2630 4349 2704 5239
          4351 3855 4991 4966 3913 558
          5261 3899 947 727 322 3162
          2262 5183 2655 5108 3246 4902
          327 3805 3900 3774 2656 5125
          4605 2062 5332 3165 2597 3179
          3563 948 3475 4092 4813 4990
          3610 4371 5210 4637 2110 1015
          4989 5184 5142 2552 4445 4529
          4673 4249 2741 5260 247 3052
          795 2085 1511 4225 4736 5042
          5240 3272 1215 5043 3804 3422
          3582 5123 3914 5016 4781 176
          4901 5295 4133 3647 3383 2296
          3958 686 4636 1964 4845 2627
          101 2346 4226 5292 4013 3049
          3995 4945 3856 4270 3696 4604
          4399 3516 1194 3777 4862 5061
          179 3271 3806 4674 4091 1254
          3626 3451 4227 4946 3779 3609
          4780 2893 5015 4329 721 3674
          2043 1962 2475 636 4760 4443
          5088 2295 4459 4802 5310 1411
          5212 1242 3421 51 3675 1663
          4581 1664 4155 1963 3449 4483
          4398 4134 2264 3780 5350 4184
          4861 1574 3840 5126 3450 3775
          2366 5235 2321 5294 4582 5211
          4014 3898 5263 3132 3957 3131
          2743 1412 5333 4812 3249 4528
          4530 3758 4331 2367 4350 4228
          2875 1123 2168 1513 156 2805
          2108 3489 4968 2214 4759 2348
          3448 3756 2215 4498 2261 5185
          5309 4352 4947 5236 1479 2779
          4860 4969 3406 5017 1637 5296
          5045 4967 2449 3993 2013 4814
          3447 3778 531 3248 3488 2014
          3697 4248 2873 4970 3857 3625
          4025 4549 2398 4606 3384 4550
          4992 3757 460 5127 5238 3650
          5186 3336 4583 3781 4782 4247
          3776 4250 5213 5046 4863 4834
          4373 4607 5089 5214 3841 3337
          1087 5062 3698 1195 5308 2169
          1126 1129 953 2018 2685 121
          955 974 2300 738 862 3388
          3386 2951 1967 1073 1968 741
          612 3651 674 2686 1969 4971
          2632 3340 2115 2895 3339 2746
          3099 3996 1596 670 1597 1559
          673 4374 6 1282 975 2116
          1752 2170 348 7 119 3273
          462 1179 3295 2112 3027 4082
          857 120 337 4015 132 524
          338 3294 4252 355 2349 1575
          336 3699 3314 5047 591 189
          4353 4074 2808 3627 3882 3424
          2023 5334 2301 4400 1971 1540
          1933 960 64 122 3100 1990
          2015 4783 3299 350 2064 1931
          3537 1514 248 2421 2368 1796
          4993 4093 1343 4427 3628 343
          2479 5264 4903 739 1595 3133
          2016 213 4053 3358 2744 1797
          1518 252 1719 2298 400 2323
          4676 613 2020 67 1255 3629
          2862 2550 66 2265 2859 1516
          3053 4551 2555 732 1519 1492
          4531 210 211 1699 3611 2399
          1517 1639 4815 688 549 4186
          733 249 124 4816 3134 1578
          134 1970 36 3338 3583 4761
          1177 543 4484 1149 3167 5155
          735 2422 3135 2631 5216 341
          494 4737 2830 1279 2401 736
          3359 1021 2266 251 749 1020
          665 1538 3274 2952 130 3452
          1852 3454 5091 801 747 864
          1555 1414 1853 224 3275 1898
          2024 2173 3455 1022 3385 1128
          1539 2177 1749 4254 3343 5335
          432 257 2482 4356 4156 797
          1125 3807 3298 513 1326 5138
          966 3361 512 3783 1301 2297
          392 3736 1417 3069 5215 4446
          3782 2480 492 2780 863 3676
          4608 4552 2687 5019 5021 803
          2369 637 3389 3760 562 2956
          2953 2063 2017 1581 1972 434
          560 2928 1280 3715 4355 1515
          3585 1723 4311 1766 2499 429
          799 5064 4185 4229 2898 1012
          3184 3915 1577 640 493 3716
          1769 2809 4926 2553 1386 4187
          1178 2528 2634 1256 68 37
          3168 3252 2689 5241 431 157
          2216 3883 802 1325 666 4078
          4448 5297 2241 491 1580 4803
          3630 1480 1904 3186 2176 1935
          1973 2657 3811 545 4485 1541
          1452 2178 212 4188 3070 3884
          3809 3453 1613 3960 4738 1930
          1542 4253 3183 4994 4230 4083
          1454 2806 1342 2912 209 2087
          3518 4028 1345 969 858 3301
          1830 4135 2423 957 2299 2026
          3032 1615 3491 3759 2899 4447
          2067 403 798 2065 3028 2117
          561 907 590 1815 744 4817
          689 4401 2068 4818 5020 428
          2426 1433 3539 2217 1722 4639
          2427 2179 1416 1672 3584 4995
          3456 3224 4054 1490 1750 2180
          2219 2302 908 2860 3644 2958
          4354 2929 804 3490 2500 5311
          1278 26 669 3962 568 357
          588 3181 352 430 1721 2481
          4739 800 963 1413 2598 126
          1751 532 2748 1453 401 2983
          2324 1900 272 617 3717 2745
          2876 2172 2425 3565 638 3959
          1579 3315 2954 2877 3185 1545
          1616 2529 4821 3808 1228 4313
          1544 3031 3296 4357 5265 3297
          181 1976 441 956 3588 3136
          3226 1229 644 3519 4332 1344
          1641 2747 3700 952 860 3107
          4271 4609 1130 3677 3166 2807
          433 255 2603 2022 3104 3735
          1283 2599 1361 3961 5128 959
          2782 1300 1127 3392 4314 3360
          1383 2600 5218 1257 587 1817
          1384 1385 4231 2531 2781 2184
          1415 961 1667 615 4819 2027
          2370 1627 2240 639 4403 806
          5090 641 3276 123 752 2900
          1481 2114 734 3492 1768 1724
          340 2602 5048 4875 465 1281
          1543 3408 2831 5217 3182 2140
          4572 4820 4312 1668 2113 1831
          1456 4703 2141 184 253 4095
          737 2930 2894 3101 3917 3207
          4585 5156 1854 3719 4846 3587
          675 4876 4688 3316 4929 4375
          1089 1932 3812 3387 4137 1753
          435 4998 2861 2021 4996 1899
          1725 2863 2659 1285 4026 1364
          4079 867 1074 2218 2171 3030
          4081 4080 910 254 1176 2424
          3302 861 1576 3210 593 805
          4702 5336 743 2658 1642 2784
          3277 133 3426 4822 4784 750
          1671 1363 183 859 356 3427
          4136 4429 1434 1546 1670 4316
          2019 2750 1230 4055 1720 3718
          5065 1418 463 1614 2025 2810
          128 250 1934 3586 1227 2955
          3029 1767 868 2501 4232 2451
          2400 3229 672 1491 27 3652
          5312 4638 4094 2554 2556 2557
          1666 2267 1387 3341 5298 5242
          125 742 2185 358 2749 3810
          642 1902 690 2186 1520 2242
          4740 514 1855 2088 466 3540
          3916 4927 3390 4016 614 1814
          1903 1700 1798 1599 2787 909
          976 2268 1019 2931 4716 3476
          4158 1286 4189 4333 467 4785
          2785 3428 4256 2706 3918 2174
          63 349 589 2530 1388 402
          865 4997 3493 970 3885 1455
          958 339 954 1813 1362 2783
          127 3932 1133 1389 1693 525
          746 1598 1150 3538 399 2558
          185 5278 17 16 2532 4640
          2428 256 1991 2069 495 911
          2143 4704 1701 3678 3999 616
          3187 1937 1390 3409 3429 2688
          345 962 1327 2903 1557 1617
          4823 3520 2660 1023 2896 3254
          1284 3251 3227 353 2633 342
          3208 964 544 346 1901 1365
          4904 3720 1640 3102 4610 1832
          4928 464 4741 2175 668 1856
          214 965 1131 4653 2089 1879
          546 4507 2350 4460 4272 1231
          2502 4743 4905 3931 2373 4402
          4255 62 1132 3786 3103 973
          5049 3209 592 2707 65 3425
          2066 4273 182 351 3105 2220
          2601 1669 3679 4315 745 4428
          3762 751 4742 3228 2561 2483
          2902 3362 4017 871 1369 748
          4587 2560 2957 4718 2812 4719
          1370 1258 4786 3631 866 3072
          4721 2534 3998 1993 3391 5188
          4972 972 1618 2897 4096 667
          2044 4114 1090 129 3842 1905
          1992 347 3457 69 1328 1816
          3680 354 1857 967 4677 2752
          2351 4679 1975 4097 4157 5219
          3919 404 971 870 1880 3347
          3784 3785 5067 2119 968 4027
          2275 912 4486 3787 187 3109
          5109 4973 5093 3106 2864 3054
          3814 2959 344 4689 2372 2243
          2559 4652 3317 671 2604 1643
          740 4553 2751 3813 3494 4358
          2636 2144 4705 405 4296 5158
          3843 4532 4678 2562 3278 2533
          4208 186 3920 4462 4950 2901
          869 3253 4465 4464 3110 2181
          2142 3458 4680 2182 1457 4847
          2878 2183 3935 5066 5068 2371
          3108 3071 1673 4999 4274 5299
          131 4444 4681 3055 5069 3300
          3211 4032 5220 2960 4825 4744
          2635 2454 1818 4948 4317 4258
          3844 188 4360 5337 526 1558
          5110 5094 2303 2325 2811 3921
          3541 4746 1974 3303 1556 4706
          4747 4461 3033 4319 5092 2453
          5000 643 2932 1938 3761 3431
          2118 3430 4404 4787 3363 4824
          3364 5112 2269 2933 4275 1419
          3997 3934 5022 4359 4586 4717
          4877 5157 2832 3188 5160 4621
          2455 2450 4467 618 1024 3816
          5024 2961 4949 4611 4362 3459
          4276 5023 4361 4745 691 3681
          4030 4654 4138 3137 4318 5159
          1483 3815 3858 3788 3933 3963
          1391 4612 4788 2091 1302 2187
          2984 1936 4257 4112 2786 4405
          4113 1881 3589 3859 3721 5114
          2452 2090 1482 3886 4463 2484
          4029 2503 2788 4031 4466 2753
          4878 4655 4826 3111 4974 3056
          3365 3964 5111 5266 4720 5313
          4233 4190 1392 4298 2402 4115
          4234 619 5027 4951 4018 4554
          5338 1994 4707 2456 5028 4722
          4033 3073 4879 1674 4159 2457
          5029 2403 3189 5095 1025 1196
          5025 4297 4508 2834 2563 2833
          4310 4723 4209 4656 5026 2458
          4210 1420 5113 4320 4952 4827
          4804 1833 4555 4622 5030 3568
          753 1858 779 1181 1180 978
          2690 676 4932 1134 3523 1977
          4377 5243 1979 4690 1773 4881
          1563 4880 981 2459 873 758
          1907 146 2190 759 5189 2197
          761 1676 876 781 375 3212
          148 2568 1600 1908 4099 1834
          2431 2905 1995 4930 258 3034
          471 1348 2305 2404 3059 3116
          3366 137 135 1303 4533 1135
          594 3495 2835 4556 367 1091
          3113 263 1437 3702 2605 2962
          1549 136 1182 1835 1770 2907
          4789 3280 409 3848 1582 259
          3846 150 754 369 2816 984
          1216 3965 696 913 3010 1996
          2908 4098 3410 3936 3342 620
          3114 4192 4590 1561 3522 1564
          755 1329 2504 2205 1366 138
          227 5050 4235 550 2092 4487
          2880 872 2093 1726 3966 1151
          496 1152 4588 4509 4378 3567
          2145 3009 3967 3319 1799 3632
          3818 756 260 360 1461 1906
          1999 1982 1305 5096 261 3968
          2506 361 2429 2817 987 990
          4240 3190 3138 914 226 371
          4933 3526 2968 2815 2196 3412
          4449 3318 140 2573 1550 264
          1912 216 2507 4278 2965 1914
          998 2508 992 29 2045 1030
          1978 4535 3682 193 3057 4642
          470 3058 3367 2879 1422 2909
          372 2200 770 4694 1940 5221
          469 2911 762 4748 4790 5339
          4191 3860 2272 265 1484 4020
          764 1198 772 1423 4139 516
          877 4791 502 2406 1997 988
          1708 2376 2409 3887 5071 4708
          1263 262 4036 3191 1861 807
          1679 5001 3393 3279 2120 1183
          4865 4641 1548 2271 3845 3701
          985 1620 1218 5002 5097 4277
          4749 8 376 3683 773 4573
          3937 1841 5162 473 4829 1459
          195 884 4056 1647 4931 2985
          3525 2536 2756 766 497 4908
          515 4534 1026 3569 2189 5222
          4468 1754 266 4336 2326 4658
          228 1702 1704 2789 4238 1487
          1199 30 995 2537 2791 5003
          1436 1029 1882 4239 1909 3460
          1911 533 3684 991 2030 2814
          2963 5161 2574 2222 3321 2191
          1801 1551 381 3864 4792 4883
          4469 1619 1703 4237 1583 1197
          3395 229 1458 374 2866 2374
          4906 4693 384 2460 3686 4488
          4363 3112 5191 3036 2121 1839
          2327 5300 915 1460 983 624
          4490 3817 2790 5279 2462 2465
          1262 190 1820 4907 596 1346
          3369 1883 2606 1396 4140 2511
          808 2270 1547 191 625 437
          1467 5315 2607 1438 3591 5314
          3723 2906 1001 1075 3655 1552
          2610 1233 4864 1939 1644 196
          989 498 3411 1645 151 3012
          4709 3115 4236 1771 1092 1646
          4101 2910 2755 889 1093 194
          2405 3969 3543 2609 4953 144
          4142 2195 1772 1485 2430 442
          3074 2194 645 1261 2378 5280
          1836 1260 917 4831 3590 4259
          3037 19 3970 1728 139 3477
          4019 4692 4407 4335 1435 4193
          2148 1624 5129 1094 2464 2966
          5143 1838 2352 3169 4321 597
          1837 362 1232 595 2881 2072
          2969 2000 2986 1648 1705 158
          4279 5192 380 982 4828 5190
          4489 2836 4470 3922 2029 1675
          3763 1678 3035 1139 1553 5130
          2564 1264 1941 1155 3862 3075
          2565 2567 1234 2566 500 2865
          5194 810 3542 5281 1304 78
          3368 1630 4510 3847 1604 4866
          3231 3722 3414 2904 2535 4035
          5033 1486 2792 5072 3521 2509
          5037 5031 2147 4909 4379 4100
          3192 2221 2028 1141 1862 2071
          1331 1709 3344 4430 2273 1628
          2813 3008 1521 4593 475 1649
          5223 3971 3140 2638 3737 4613
          649 1942 1981 598 4000 4867
          4726 599 215 2146 2193 4376
          3566 1621 3865 1800 979 359
          4710 1560 408 1859 4954 1562
          3139 4882 980 3791 3789 4691
          1755 4793 4406 4408 5316 517
          1821 994 2353 3792 2967 4450
          4643 3614 4491 2375 406 1802
          2757 4830 5144 1439 3320 75
          4281 1079 2964 1027 1421 3725
          4102 3232 3923 2512 3656 3867
          4910 4575 39 3496 2461 1803
          4322 363 3685 547 1706 3924
          3346 1623 1493 1622 159 1095
          142 1153 694 2576 2572 4955
          3592 2150 4711 366 3230 4725
          1913 2577 2505 225 4537 5051