<?xml version="1.0"?>
<VTKFile type="UnstructuredGrid" version="0.1" byte_order="LittleEndian" header_type="UInt32" compressor="vtkZLibDataCompressor">
  <UnstructuredGrid>
    <Piece NumberOfPoints="4916" NumberOfCells="4916">
      <PointData>
        <DataArray type="Int32" Name="id" format="ascii" RangeMin="1" RangeMax="4937">
          2283 1157 2712 275 1466 2841
          4323 81 2995 2050 3326 1843
          820 2054 3001 704 700 333
          2993 3826 3470 3080 4414 2842
          1806 814 921 2227 719 2382
          1947 604 2097 2437 2055 2049
          2128 274 4647 920 4338 79
          2716 1098 1590 95 1236 1441
          481 1142 2692 1037 1203 276
          41 80 4063 2586 92 627
          2916 2247 2246 1202 4290 1048
          2693 2155 2844 3945 1288 4172
          2414 3596 1055 2840 3398 3285
          1735 45 3284 287 3635 3469
          240 161 2516 230 1865 82
          4287 3739 2051 4216 929 571
          277 2668 1884 2281 1080 2990
          2248 280 1631 1034 3433 4625
          707 3216 3399 1430 386 3120
          4852 1399 2694 1527 3415 3173
          2650 3661 2711 4170 891 3480
          582 235 2310 2487 476 655
          2095 2767 3436 1042 1035 411
          84 2076 231 289 2229 4893
          445 3704 2333 3825 2436 94
          4340 2334 200 479 3327 4648
          1807 4557 387 2517 1353 1186
          2940 1271 2100 2384 477 3740
          163 234 4765 3400 815 818
          1220 705 2664 2413 233 2228
          821 90 702 2356 4086 2355
          2156 1842 1165 2282 1605 243
          2714 1097 1887 482 1250 1444
          291 706 2440 4664 2101 3662
          2250 3214 573 2129 3437 703
          1168 1357 4062 2769 784 2709
          1352 1 3742 1528 1866 4339
          2717 4419 2616 1445 2308 505
          1443 4729 1100 3401 2360 1684
          4416 4558 1944 1685 4624 1945
          4289 4420 4435 4661 2917 1269
          3796 1245 2696 444 2075 1185
          2434 3172 654 1101 1102 2383
          1917 4697 3215 3435 4662 4040
          1529 2472 2435 1246 2005 2971
          3434 1889 4217 2992 1372 1777
          3238 1247 2006 1158 2972 4303
          3122 605 47 1497 2249 4200
          3872 782 715 295 786 626
          21 3121 3015 1373 3471 4481
          4660 1918 2666 2941 2543 1470
          1778 536 572 2335 2945 3832
          268 783 657 2032 3093 4626
          709 4341 2942 2358 1187 2697
          2885 2721 506 1966 4171 1374
          3123 656 2056 3875 2766 712
          528 3324 1251 292 3905 3
          4797 3873 3892 2 2729 286
          2583 3833 4199 3893 537 2133
          1244 1400 4198 1270 1043 3502
          1335 3977 3728 4126 3599 3259
          4324 1160 3468 1184 1033 1166
          3040 4292 1045 4418 1038 1984
          1104 2973 1237 1686 4147 1005
          1032 2975 418 2053 294 164
          1371 1951 2991 4173 653 2132
          2396 3258 4598 3349 1946 892
          2695 1844 3573 1442 2103 1765
          3083 1163 4806 155 1161 416
          3727 83 1292 1498 4005 1985
          3217 2309 1036 4663 1565 1737
          4475 3688 3798 2823 3618 1738
          2381 2944 1428 2096 2584 278
          2868 924 535 2541 817 1689
          4696 2643 1249 4542 2642 678
          2882 2976 4579 4512 2077 48
          4003 2974 1502 4342 3016 2919
          1310 4304 42 2131 1201 3481
          4918 4415 4042 299 2665 4666
          4286 925 628 3503 2824 4891
          168 2710 3800 2380 2718 2357
          3978 237 3039 4388 4293 1401
          1321 575 4288 4545 3928 2994
          87 53 2770 3636 4066 3850
          2996 202 681 4004 4892 3876
          1530 478 1919 1398 2387 2332
          448 2138 1885 2312 2540 1040
          609 232 3947 2313 2052 829
          552 4514 3597 1041 1376 199
          2099 2585 1501 412 2488 2918
          3946 1427 22 167 683 1780
          483 1248 2845 3574 3874 4515
          417 4617 31 1002 3877 4041
          2337 2539 86 32 1426 3402
          2667 1099 4294 3705 2663 2385
          2034 2999 2102 2078 4174 1736
          446 1081 4665 297 2286 4627
          4766 824 1500 279 1949 480
          3744 4919 1504 1354 2079 4807
          1920 3769 3325 4436 4218 3528
          1779 3619 1499 1204 2795 2768
          2386 2251 819 2314 4730 4148
          1162 4417 1044 3663 4149 574
          2843 4434 2977 3371 388 713
          4698 1189 4599 577 3729 1607
          893 3768 1739 1782 3416 679
          3637 162 3743 2284 504 3082
          2033 3482 3085 813 1051 3124
          520 3237 3638 2311 1205 2848
          4065 1313 422 553 1291 1950
          4600 1760 2104 1781 1762 1759
          2031 576 1783 1632 684 1892
          1891 1159 1886 1531 2359 2080
          1377 3797 1471 3081 1047 708
          3261 2439 4263 3640 2315 1653
          2939 3741 3218 816 4731 85
          2206 2491 282 2098 1654 1868
          2883 3799 2287 3198 173 2130
          4894 3770 1167 455 680 220
          2669 2713 793 3620 4497 4544
          1785 1867 49 4543 2719 1714
          710 2285 390 284 3767 419
          4476 1429 1503 1952 3017 2671
          2715 1145 285 1567 3146 2443
          507 922 3018 389 4559 1039
          44 2946 4477 1634 3328 1049
          3601 4291 93 1337 3240 1031
          12 2847 785 4262 4175 3260
          2316 1687 3350 1472 1888 4628
          1311 2390 4650 2441 1190 2588
          658 3745 3664 2290 1007 4438
          238 88 4798 894 2978 1566
          3666 3598 2870 4478 827 606
          822 1713 2489 4204 3019 1052
          1688 484 4686 1986 529 3948
          2673 1948 203 4241 1334 2670
          823 2157 2644 1869 714 1164
          3600 2415 3000 1633 2724 2230
          2159 1403 3086 3801 2771 2471
          153 1606 1004 2542 4242 3306
          4921 1381 2617 3949 4244 2288
          2869 2208 4920 787 1289 630
          1784 4064 2490 2289 4767 2036
          3665 91 1473 4006 4895 2317
          160 3950 2825 2035 4422 2674
          166 4768 1402 2938 420 1050
          3929 3021 3377 281 3529 11
          2416 2997 2589 825 2587 2947
          3382 3329 3689 2158 2796 2057
          1474 4513 629 1290 1763 2007
          4045 3621 607 4067 3373 3483
          4618 1054 46 2336 682 3639
          1890 2231 2395 1336 2722 165
          1312 3828 2518 3084 923 4421
          3417 3504 1921 236 447 895
          3484 1103 283 1845 2884 3530
          1003 4516 89 4178 1188 2698
          1761 3747 4219 4202 4047 4205
          3749 1591 1375 3379 1106 3351
          1655 2444 4853 43 4177 826
          3126 3381 3088 1893 3044 4343
          1053 3576 2943 2979 288 578
          3041 3575 2672 4044 3372 1046
          1272 4699 4873 4176 421 579
          3239 1532 2826 4560 4423 3577
          3262 2134 828 4201 3668 4203
          2338 3894 1105 3200 1006 4563
          4043 4602 3199 4771 290 2720
          4046 2726 1870 3063 4245 711
          3706 896 3020 3827 3352 2442
          3746 1764 2798 3374 2252 3087
          3834 1082 2772 3748 4546 4547
          4499 1222 2038 4437 3125 4389
          4896 4835 2699 2207 2920 4069
          3485 1465 4264 4769 1554 3622
          4601 4619 3532 4770 4350 2519
          1221 2291 1922 4344 4370 415
          4700 4649 4772 4127 4048 293
          4561 3147 2037 3148 449 1786
          1953 3602 4007 3691 2318 3439
          4049 4565 4458 4392 4874 2618
          3641 4808 4713 4391 3667 4854
          1690 4620 4393 4922 3896 3531
          4439 1446 4837 4773 1608 2725
          4243 2921 201 1592 4390 3771
          2797 1894 4872 4562 4517 4630
          3878 3380 3690 1895 1740 3851
          4150 3438 2723 4151 3375 2389
          4701 2417 3533 4687 3376 2773
          3642 4024 4774 4265 4564 1846
          3330 3127 3418 3578 4068 2619
          2645 2727 4629 3042 3043 3897
          3895 4836 4106 4809 1143 4266
          3022 3378 4008 2728 4757 3835
          1273 3836 4712 4070 4758 239
          1718 2445 97 2392 2008 3150
          2621 3551 4108 4071 1267 1238
          3202 3203 1107 4207 926 1056
          1954 1206 663 1808 1847 930
          334 303 2544 1057 1112 1113
          1594 2851 950 1110 110 2732
          3553 4500 608 3333 3507 2681
          832 311 106 836 2232 2391
          4632 1656 2646 485 4810 2800
          1062 2253 791 3219 1169 2293
          3243 1475 3128 2210 1404 3692
          3441 486 1533 564 312 3693
          298 52 2522 2419 1223 96
          662 3669 114 2871 660 936
          2774 3174 792 685 2889 3871
          928 904 847 4519 14 2980
          1111 391 2730 4206 1338 2775
          3908 1826 98 1741 1225 3505
          3750 632 4839 831 108 55
          4714 2731 1871 1316 1011 100
          3221 451 581 901 413 2393
          1717 3579 4775 1660 2734 1534
          2523 4566 178 4128 3730 2163
          3175 3309 3023 2872 3151 717
          2319 3353 1295 931 3907 1314
          4811 2647 3643 1224 4523 4179
          2675 242 2546 555 538 2591
          3979 933 3420 241 1059 3225
          296 2700 3552 111 1058 1356
          1315 1109 2320 4424 425 944
          3046 4220 927 307 1691 1508
          2648 945 1192 3534 4221 720
          2344 1170 1789 385 3263 1405
          308 2679 839 3089 844 1695
          2620 59 2888 3289 1568 2799
          3440 1276 3331 4440 3332 4088
          3670 1294 1060 2493 394 4521
          2590 316 310 4089 2520 317
          2106 2676 1926 331 2982 1535
          1406 2237 1014 2923 4631 1319
          4518 2649 3906 3241 4799 4087
          3223 1378 3554 2886 3710 1210
          2082 3707 459 1008 2418 3838
          3149 397 3953 169 180 1171
          3201 3951 4899 580 2339 789
          2854 302 426 1108 2135 4732
          3603 1635 4050 4504 4153 4479
          4345 2011 1355 2827 4222 3645
          1811 1450 457 1742 3510 3904
          1957 1958 2438 1959 1850 423
          1743 902 4842 1790 4346 1117
          3155 1505 1317 4855 25 3556
          2040 2678 3152 2341 4524 24
          3473 723 701 3486 3909 3980
          4897 4306 3403 3153 2735 154
          4668 1339 4267 3267 2446 3506
          585 4520 3561 335 4441 3222
          309 1449 2255 1144 3509 3981
          2345 2891 3264 1448 221 329
          509 3206 2625 834 530 112
          3837 458 1659 2801 830 3250
          3265 3580 393 4800 610 4567
          4009 206 1252 490 1506 946
          170 4923 2447 2041 2677 4107
          1208 2209 2166 1293 2651 2234
          324 2254 209 2803 2702 1536
          1507 1010 2083 4633 1924 2733
          1787 2922 453 3236 1120 4480
          4568 3442 3205 1061 2009 3487
          4522 454 3220 3308 1788 1268
          661 837 3671 3606 3709 4152
          4840 300 1715 1987 1407 175
          3443 1084 1323 1447 2924 2136
          4394 2776 4482 1658 2212 2593
          2981 2925 2340 1745 2701 3752
          4856 23 3879 1275 905 1593
          2039 554 3731 3912 1191 223
          1876 932 2592 1873 56 3045
          1322 1694 3604 2547 4584 2473
          488 4305 1016 903 4223 2703
          3558 174 4733 3288 2624 3607
          1318 61 3952 3024 835 510
          728 1122 4130 2211 2949 3472
          1744 34 3581 3292 1379 833
          854 1071 3163 790 3419 1340
          3508 1569 4669 4347 845 4307
          2394 934 2058 4777 1928 2526
          2061 1747 2521 3404 557 1662
          1207 4 452 2849 4857 4129
          3266 611 1988 1872 4898 4670
          2233 1431 3695 3992 2294 3090
          939 567 2594 3154 935 318
          4110 1172 2887 3164 3159 1570
          586 50 3711 332 937 325
          4325 4525 900 3753 4501 1274
          301 3512 2857 2492 2828 1239
          1571 897 450 1358 204 4090
          313 54 2010 521 4569 3096
          3356 1209 2105 3355 1716 1792
          1476 1809 898 270 942 4425
          584 3176 4838 3751 3955 4776
          304 3623 1477 3991 4667 2850
          3064 3313 2081 2846 1746 1009
          207 3708 1874 3242 314 3244
          3984 4308 899 1923 2545 2364
          3605 3065 3773 1794 631 2448
          2680 3091 724 2892 556 3269
          1829 2653 3562 3985 3307 3474
          208 4503 1478 4858 3268 3092
          1509 3287 2361 105 1065 1211
          796 1537 1961 949 3158 635
          559 2060 4010 2596 4635 1896
          1848 1083 583 2257 3694 115
          2167 3446 2950 794 3624 1793
          846 2161 2852 4924 3880 566
          2137 2160 395 4072 177 3560
          4073 4109 3555 2626 1320 1965
          2235 1636 1018 489 1382 3204
          1088 1085 940 1692 2362 1124
          3754 4180 1875 539 3004 4111
          2342 3514 2258 2495 1086 321
          725 4309 3354 320 1609 4844
          722 2494 1213 116 2652 716
          4734 2236 4715 3802 726 2420
          205 1661 4859 938 2292 3911
          1849 172 718 1410 4396 102
          1955 3982 3986 3047 3310 1960
          2363 542 1063 523 2926 487
          3983 3286 951 396 4395 2165
          4442 2548 1173 1114 1068 3755
          3245 943 2498 3156 3025 57
          3311 3157 1174 60 3293 4181
          3559 1146 3097 3511 2365 729
          1175 3732 3444 2397 4634 1697
          1069 2682 35 2059 2777 1017
          3734 2347 2802 3712 2628 4502
          1119 3910 117 730 2107 3954
          4131 2109 398 2829 1851 1226
          2927 4526 2705 1791 1212 2739
          1897 1927 856 113 3672 2162
          4327 850 4801 1512 2804 245
          427 3673 2948 2742 1147 3270
          1013 4246 1240 3160 3536 3445
          305 3713 853 4505 2856 906
          3002 4548 4012 319 4052 3003
          3006 15 1510 3094 522 3852
          2256 4843 1115 1698 3608 326
          731 414 4295 2139 1611 171
          4841 2239 2525 3312 3048 1925
          1409 2343 1277 109 2654 4426
          424 2622 2549 4224 2012 315
          3829 511 1610 3557 3515 222
          3853 1408 838 3050 687 3772
          58 1359 1432 2890 118 271
          1812 104 1066 3988 1748 4925
          2084 3733 2595 4570 3095 2684
          634 1324 2260 1064 1148 2497
          1298 2778 1072 1451 456 4348
          4051 2524 3648 1573 2551 4268
          1626 2111 2998 1638 3130 540
          2213 2388 3881 4580 4671 3098
          4603 4076 5 2629 4328 2527
          1214 4075 3854 2238 3423 3714
          1665 3129 1989 4326 4506 4651
          1241 1116 2853 2086 3405 1828
          3067 3007 1243 107 1956 2496
          4154 2259 3178 2737 633 1810
          852 664 1657 3177 4672 1572
          659 4397 941 541 4372 2858
          2623 3161 3956 1253 2164 1878
          328 3839 3803 327 843 306
          3291 3994 3930 3290 1121 4182
          2738 1827 3334 3987 1070 1118
          3247 4011 3513 1696 3517 2263
          3535 323 330 1299 2874 4251
          2683 461 3989 4675 3068 2477
          4571 3564 4778 3066 1612 1341
          2855 3005 840 2736 3180 3990
          4183 244 4900 795 3649 2476
          4330 3051 2740 1511 2478 1929
          4779 1296 4077 4132 3646 1215
          3407 851 1193 4269 3335 1877
          4735 1297 2630 4527 4349 2704
          686 4351 3855 3913 101 1360
          3899 947 2262 727 322 4013
          3162 2655 2322 3246 4902 3805
          3900 1194 3774 2656 4605 3271
          2062 1254 4227 3179 1795 2597
          3563 948 3475 4092 4813 3610
          2475 4371 1067 636 4637 2110
          1015 2552 4445 4529 4673 2741
          247 3052 2085 1663 4225 3026
          3272 3582 4444 3804 3914 2264
          4781 1637 4184 4901 176 3647
          3383 3840 2296 3450 4636 1964
          2321 558 4845 2627 2346 4226
          3049 3856 3995 3131 4270 3696
          4604 4399 3516 3777 179 4862
          3806 4674 4091 3626 3451 4530
          3779 3609 4780 2893 3165 3674
          4329 3489 721 2043 1962 2214
          4760 4443 3756 2295 4249 4459
          4802 1411 1242 4498 3675 3421
          51 4736 4581 1963 3449 4155
          4483 4398 3422 4134 3780 4861
          4133 1574 3775 3958 2366 4582
          4014 3898 3993 2013 3132 3957
          2743 4812 3249 4528 3758 4331
          2367 4228 2875 1123 2168 1513
          2805 2108 4759 2348 3448 2215
          4606 3757 2261 4352 1664 1479
          2779 4860 3406 1087 2449 4814
          1412 3447 531 3778 3248 3488
          2014 3697 4248 2873 156 3857
          3625 4025 4549 2398 3384 4550
          460 3650 3336 4583 3781 4782
          4247 3776 4250 4863 4834 4373
          4607 3841 1195 3337 3698 2169
          1126 1129 953 2018 2685 121
          955 974 2300 738 862 3388
          3386 2951 1967 1073 1968 741
          612 3651 674 2686 1969 2632
          3340 2115 2895 3339 2746 3099
          3996 1596 670 1597 1559 673
          4374 1282 975 6 2116 1752
          2170 348 7 119 3273 1179
          3295 462 2112 3027 4082 857
          120 337 4015 132 524 338
          3294 4252 355 2349 1575 336
          3699 3314 189 4353 4074 2808
          3627 3882 3424 1540 2023 2301
          4400 1971 1933 512 960 64
          122 3100 1990 2015 4783 3299
          350 2064 1931 3537 1514 2368
          248 1796 2480 2421 4093 1343
          4427 3628 343 2479 2369 739
          4053 1595 3133 2016 213 3358
          2744 1797 1518 252 1719 2298
          400 4355 4676 613 2020 2323
          67 1255 3629 2862 2550 2265
          2859 1516 3053 4551 2555 732
          1519 1492 4531 210 211 1699
          3611 2399 1517 1639 4815 688
          4186 733 249 124 4816 3134
          1578 134 1970 36 3338 800
          3583 4761 1177 4484 543 2528
          1149 3167 735 2422 3135 2631
          2983 341 494 4737 2830 2401
          736 3359 1021 1020 1279 251
          749 2266 665 1538 3274 2952
          130 3452 1852 3454 801 747
          864 1555 1414 1853 3275 1898
          2024 2173 3455 1022 3385 3809
          1128 1539 2177 1749 4254 1930
          432 257 2482 4356 4083 4156
          797 1125 591 3807 3298 513
          1326 966 3361 1301 2297 3783
          3736 1417 3069 4446 492 2780
          863 3782 3676 4608 4552 2687
          4903 562 803 1433 637 3389
          3760 2063 2956 2953 2017 1581
          1972 434 560 2928 3715 1515
          1723 1750 3585 2180 66 1766
          2499 429 799 4185 2898 1012
          549 3915 3716 1577 640 493
          2809 4926 2553 1386 4187 1178
          2634 1256 68 37 3168 3252
          2689 431 157 2216 3883 508
          802 1325 666 4078 4448 2241
          491 4803 3185 1580 2529 3630
          1480 224 1904 3186 2176 1935
          1973 2657 3811 545 4485 1452
          2178 212 1541 4188 3453 3070
          3884 1613 441 3960 4738 3136
          1542 4253 3183 4230 1454 2087
          2806 1342 2912 3518 4028 1345
          969 858 3301 1830 4135 2423
          957 2299 2026 1615 3491 3759
          2899 4447 2067 403 798 2065
          3028 2117 561 392 907 590
          744 2782 4817 689 1815 4401
          2068 4818 428 2426 2217 4639
          1722 2427 2179 1416 1672 3584
          1280 3456 3224 4054 1490 2370
          2219 4311 2302 908 2860 3644
          2958 4354 4229 2929 1278 3490
          2500 26 3184 669 3962 568
          357 588 3181 352 1769 430
          1721 2481 4739 3182 1413 2598
          126 1668 1751 532 401 2748
          1453 2324 1900 617 272 3717
          2745 2876 2172 3719 2425 3565
          638 3959 4846 1579 3315 2954
          2877 1545 1616 4821 3808 1228
          4313 1544 3031 3296 4357 3297
          1976 956 3588 1229 3226 644
          3519 910 1344 1641 952 2747
          3700 860 3107 4271 4609 1130
          3677 3166 2807 433 3032 255
          2022 3104 1283 2599 3735 1361
          3961 959 1300 1127 3392 4314
          859 1363 3360 1383 2600 1257
          587 1817 1384 1385 3539 4231
          2531 2781 2184 1415 961 1667
          615 4819 2027 1627 2240 639
          4403 806 250 641 3276 1934
          3586 123 752 2900 804 1481
          2114 1491 734 3492 1768 1724
          340 2602 4875 465 1281 1543
          3408 2831 2140 4572 963 4820
          2113 1831 4312 253 1456 4703
          2141 184 4095 737 2930 2894
          3101 3917 2185 3207 4585 3810
          1854 3587 675 4688 3316 4929
          4375 1089 1932 3387 3812 4137
          1753 435 2861 2021 1899 181
          2659 1725 2863 4079 1285 1364
          1074 867 4026 2218 2171 3030
          4081 4332 4080 3918 254 1176
          2424 3302 861 1576 593 805
          4702 2603 743 1642 2658 2784
          3426 1362 3277 133 954 4822
          4784 750 1671 183 356 3427
          4136 4429 1434 1546 2750 1670
          4316 2019 1230 4055 3718 463
          1614 2025 1418 2810 128 911
          1227 2955 3029 1767 868 2501
          4232 1937 2451 2400 672 27
          3652 4638 1023 4094 2554 2556
          1284 2557 1666 2267 1387 3341
          125 742 544 358 1640 2749
          642 1902 690 2186 1520 2242
          4876 514 1855 2088 4740 466
          3540 3916 4927 3390 214 614
          4016 1814 1700 1798 1599 2787
          909 976 2268 2931 4716 1019
          4158 4333 3476 4189 467 4785
          2785 3931 3428 4402 4256 2706
          349 2174 63 589 2530 1388
          402 3210 3493 970 3885 65
          1455 958 339 1813 2783 127
          3932 1133 1389 1693 525 746
          1598 1150 3538 399 2558 185
          17 16 2532 2902 1720 4640
          2428 256 1991 2069 495 2143
          4704 1701 3678 616 3187 1390
          3409 3229 3429 1327 2688 345
          2903 1557 1617 962 4823 3520
          2660 2896 3254 3251 3227 353
          2633 342 3208 964 346 1901
          1365 4904 3720 3102 1905 4610
          1832 4928 464 4741 2175 668
          1856 1903 965 1131 4653 4157
          1879 546 4507 3919 2350 4460
          4272 1231 3784 2502 1286 4743
          2373 4255 187 62 1132 3109
          3786 3103 973 865 3209 3814
          592 2707 3425 2066 4273 182
          351 3105 2220 3679 2601 1669
          4315 3317 745 4428 3762 751
          740 4742 3228 2561 2483 3362
          871 1369 4017 748 4587 2560
          2957 3999 2812 1370 1258 4786
          866 3072 4721 2534 3998 3391
          972 1618 2897 2142 4096 667
          2044 4114 1090 129 3842 1992
          347 3457 69 1328 1816 3680
          354 967 1857 4677 2752 4679
          4097 2351 2089 404 971 870
          3347 3785 3071 2119 4027 1880
          912 4905 4486 3787 131 3106
          3055 2864 3054 1419 2959 344
          4689 2372 2243 4652 671 2604
          1643 4553 3813 2751 3494 4358
          2636 4705 405 4296 3843 4718
          4719 2562 2533 3631 4208 186
          3920 4462 1993 2901 869 3253
          4465 4464 3110 2181 3458 4680
          2182 1457 1975 2878 2183 4847
          3761 3935 2932 2118 2371 3430
          968 4274 4681 2269 3300 3211
          4032 2960 4825 2559 4744 2635
          2454 1818 4317 2144 4258 3188
          3844 188 4360 4532 4678 526
          1558 3278 2325 2811 3921 3541
          4746 1974 3303 1556 4706 4747
          4461 4319 3033 643 2453 1938
          3431 3108 4787 4404 3858 3788
          1673 4824 1391 3364 3363 4275
          1302 3997 4359 3934 4586 4877
          4717 2832 2786 4621 2450 4467
          2455 618 1024 3589 3816 2961
          2303 4611 4362 3459 4276 4361
          4745 691 3681 4030 4654 4138
          3137 4318 3815 4655 4826 1483
          3933 3963 4612 4788 2933 2091
          4233 2187 2984 1936 4257 4112
          4405 619 4113 1881 3859 3721
          4018 2452 1482 3886 4463 2484
          4029 2503 2788 4031 4466 2753
          4878 3111 3056 3365 3964 4720
          4190 4298 1392 2402 4115 4234
          4554 3189 1994 2090 4707 2456
          4722 4033 3073 4879 4159 2457
          2834 4508 2563 2833 2403 1025
          1674 1196 4297 4210 4310 1420
          4723 4209 4656 2458 4320 4827
          4804 1833 4555 4622 753 1858
          3568 779 1181 1180 978 2690
          676 4932 3523 4377 1977 1979
          4690 1773 4881 1563 4880 981
          2459 873 758 1907 2190 146
          2197 761 1676 876 781 375
          2568 3212 148 1600 1908 1834
          2431 4099 2905 1995 258 3034
          4930 471 1348 2305 2404 3059
          3116 3366 137 135 1303 1135
          594 3495 2835 4556 367 1091
          3113 263 1437 3702 2605 2962
          1549 136 1182 1835 1770 2907
          3280 409 150 3848 259 3846
          4789 754 369 984 1216 3965
          696 913 3010 1996 2908 4098
          3410 3936 3342 620 3114 4192
          4590 1561 3522 1564 1134 755
          1329 2504 2205 1366 2985 138
          227 3525 4235 550 4908 2092
          4487 2880 872 2093 1726 3966
          1151 496 1152 4588 4509 3009
          3567 2145 3967 3319 1799 3632
          756 260 360 1461 1982 1906
          1999 1305 261 2429 2506 3968
          361 2817 987 4240 3190 990
          4933 3138 914 226 371 3526
          2968 2815 2196 4449 3318 140
          2573 1550 264 1912 216 2507
          4278 2965 1914 759 2045 2508
          992 29 1030 1978 4535 3682
          193 1703 3057 1619 4642 3058
          470 3367 2879 1422 2200 2374
          770 372 1940 469 2911 762
          4790 3036 4191 3860 2272 265
          1484 4020 764 1198 772 1423
          4139 516 877 4791 502 2406
          1997 988 1708 2376 2409 3887
          1263 262 4036 1861 3191 1679
          808 4533 807 3393 3279 3343
          2120 1183 4865 1001 4641 1548
          989 1939 3845 1582 3701 2271
          1620 1218 4277 2816 4749 8
          376 773 4101 4573 3937 1841
          473 4829 195 884 4056 1459
          2536 2756 4142 2195 766 497
          515 4534 1026 3569 2189 4378
          4468 1754 3818 266 4019 4336
          2326 4658 228 1702 1704 2789
          4238 30 995 2537 1436 2791
          1882 1838 1911 1029 3460 533
          3684 991 2030 2814 3412 2963
          1421 2574 2222 3321 2191 1801
          1551 998 3864 4792 4883 4469
          1583 1197 229 374 2866 1458
          2909 4906 4693 4694 384 2460
          3686 4748 4488 4363 3112 2121
          2567 1839 915 1460 983 2327
          624 3817 2790 2462 2465 1262
          190 1820 596 1346 3369 1883
          4708 2606 1396 4140 3521 2511
          2270 1547 191 625 437 1467
          2607 1438 3591 4864 3723 2906
          1075 3655 1552 2610 1233 1644
          196 498 985 3411 3612 1645
          151 3012 1521 3115 3683 1092
          4236 1771 1646 2910 3140 2755
          889 1093 194 2405 3969 3543
          4931 1647 2609 144 1772 3566
          645 2430 442 3074 1485 2194
          1261 1836 1260 3139 917 4831
          3590 1728 4259 3037 19 3970
          139 3477 4692 4407 4335 1435
          4193 2148 1624 1199 1487 2464
          4239 2966 2352 3169 1909 4321
          597 362 1232 595 1837 2072
          2969 2000 2986 1705 158 4279
          381 380 4910 982 4828 4489
          2836 4470 39 3922 2029 3763
          4237 1675 3395 1678 3035 1139
          1553 1264 2564 159 1155 3862
          3075 2572 1941 2565 1234 2566
          500 2865 1304 810 3542 225
          78 3368 1630 4490 3847 1604
          4866 3231 4907 3722 3414 2904
          4035 2535 1486 2792 2147 692
          2509 3192 4909 4379 1586 4100
          4143 2221 2028 4084 1141 1862
          1331 1709 3344 4430 2273 1628
          2813 4709 3008 4593 475 1649
          198 3971 2638 3737 4613 649
          1942 1981 4000 4726 598 4867
          599 215 2048 2329 2193 1621
          2146 3865 4376 1800 979 359
          4710 2378 1522 408 3791 1562
          980 3789 4691 1755 527 4406
          4408 1821 2353 3792 517 994
          2967 4450 4643 3614 4491 407
          2375 406 1802 2757 1094 4830
          1439 3320 4281 1079 75 2881
          2964 1027 3232 3725 4102 1138
          3923 2512 3656 4575 3496 2461
          1803 4322 363 3685 547 1706
          3924 3346 1623 2538 1493 1622
          1095 142 1153 694 4711 3592
          366 3230 4725 1913 2577 2505
          4510 4537 4596 4471 1028 3142
          4283 812 916 4034 880 1397
          1819 1651 3527 3545 695 2126
          2188 3524 368 1732 2407 621
          4384 977 10 3795 4623 9
          4728 4118 4614 1998 1864 4141
          3013 1584 2071 436 2003 2223
          2466 1393 4589 3793 993 2569
          2608 4574 468 1259 438 1585
          2637 2661 563 378 2377 1601
          1980 4409 439 3724 1822 410
          2468 4724 767 2411 4103 4727
          811 3544 2570 1287 4936 3546
          1560 20 4334 882 3141 4364
          1859 3863 3653 757 2203 4882
          4913 4793 192 4536 3143 2328
          1860 1154 1680 4117 4119 986
          2070 3972 2463 440 809 4280
          1824 4885 4935 2127 600 499
          1266 1804 4161 874 883 141
          474 1648 4492 3011 697 1463
          3867 152 2571 2575 365 3194
          2192 1394 3819 2094 760 2198
          693 2274 2913 273 1707 2576
          1650 3925 3076 3234 2150 4914
          2125 1910 4911 3593 3849 2754
          218 3687 1915 3077 1330 72
          878 2199 1727 2047 3413 149
          4750 1863 3117 3394 3830 3861
          3941 602 3633 646 4751 4124
          4057 2762 2838 1468 3738 996
          3703 1306 503 2151 2073 2764
          3571 4380 3547 3498 1424 1078
          74 4762 4058 569 2510 3889
          2987 885 370 1307 4001 3790
          3062 1367 4934 1136 4451 145
          2330 1077 2611 3304 1368 4383
          2758 1774 4848 879 3654 4657
          1523 3322 197 3888 3659 1347
          886 3794 1677 4059 4194 2410
          4805 1710 4615 774 2467 2759
          1524 768 2578 2580 699 4104
          4683 4493 1332 2204 4644 1943
          4884 3193 2202 2579 875 534
          364 780 2935 4682 2304 518
          3820 769 763 2914 650 2149
          501 143 2122 4591 622 2046
          3926 4659 4592 1652 4912 4162
          3821 3927 217 2837 4832 1756
          775 4121 1730 2225 623 1588
          4144 4116 2276 4021 472 4160
          1333 2934 3939 651 377 3345
          3613 1265 71 1076 4212 3061
          3060 2278 1983 4684 3500 2002
          647 3370 4381 4382 2469 2408
          4164 2613 3281 4165 890 1776
          1805 73 2691 570 3233 2152
          1775 4120 4794 4386 2280 379
          3497 3461 3257 2970 1840 1711