<?xml version="1.0"?>
<VTKFile type="UnstructuredGrid" version="0.1" byte_order="LittleEndian" header_type="UInt32" compressor="vtkZLibDataCompressor">
  <UnstructuredGrid>
    <Piece NumberOfPoints="2748" NumberOfCells="2748">
      <PointData>
        <DataArray type="Int32" Name="id" format="ascii" RangeMin="1" RangeMax="2765">
          1157 2712 1466 2050 1843 820
          2054 333 700 704 1806 814
          2227 921 719 2382 1947 604
          2097 2437 2055 2283 2049 2128
          274 920 79 1098 1590 95
          1441 1142 2692 1203 1236 2583
          1037 276 41 80 92 275
          1528 2247 2246 1202 627 1048
          2155 1288 1684 45 2516 81
          287 161 230 1865 82 240
          2051 1269 2281 571 277 1185
          2668 929 1884 1080 164 2248
          280 1917 2472 707 1631 1034
          1529 386 1399 2694 1527 2711
          891 582 1777 2310 1247 476
          235 655 2095 2487 1042 47
          1035 411 2076 231 2229 1497
          84 94 786 2333 2436 2334
          479 1807 1353 2517 1186 387
          1271 2384 234 2100 477 163
          1778 572 815 818 1220 705
          2664 783 233 2228 821 1605
          702 2156 1842 2356 90 2355
          1887 1165 243 2714 1097 2282
          1250 291 1444 706 2440 2101
          528 573 1168 2716 2 537
          2709 1 2586 1866 2693 505
          2308 1443 2414 1100 2360 1184
          1945 1735 1944 1685 1245 1984
          2696 1686 444 1237 2075 2434
          654 1102 2383 1919 1398 1371
          1430 2435 2005 892 1889 1246
          1442 2006 605 1158 416 155
          1372 701 1427 2249 445 289
          2309 200 21 2666 2543 1470
          536 2032 2335 268 657 1689
          2413 709 2358 1187 1249 2642
          482 1500 2697 2077 2721 506
          1966 1374 2056 656 480 42
          2250 712 3 292 703 2129
          481 2729 299 1400 1352 1499
          784 2133 1270 168 2616 1244
          819 1445 2710 2717 1335 577
          1166 1401 44 1033 893 162
          1045 1104 53 1005 1032 478
          202 418 2053 294 1101 1951
          2311 2132 448 2332 2138 1781
          1946 2695 1844 609 2103 1765
          2052 552 232 199 1376 83
          2585 1292 412 1780 1985 1498
          683 483 782 715 1036 1737
          626 1373 1565 1986 31 1918
          2381 1428 2584 278 924 1738
          2096 1099 32 2541 535 2663
          817 2643 455 1736 678 48
          2286 1502 1310 1251 1201 2131
          1354 2665 1779 1429 925 286
          628 1043 2380 2718 1189 2357
          237 1160 1739 679 1782 1038
          504 2033 520 2284 813 1031
          1051 681 653 2387 1885 2312
          2540 1759 1040 576 1163 2313
          1161 1159 684 1566 2099 1886
          2359 2488 295 167 1471 1248
          1688 2337 1002 2539 86 1426
          2667 2385 2206 282 2034 2130
          2078 446 1081 2102 173 297
          220 2669 680 824 279 793
          1949 1004 1606 2079 1920 1289
          710 419 630 1204 1952 2715
          2251 1503 2386 285 2314 1567
          1162 160 1044 574 388 2035
          922 713 1607 1039 1402 1634
          575 93 281 785 1530 1687
          2316 422 1205 1472 629 1313
          1311 2390 1950 1760 2104 1762
          238 88 1783 1891 1041 1892
          1501 1531 2080 22 1713 708
          1047 484 1052 2439 529 1653
          1921 816 1948 2670 895 85
          1334 2491 203 2098 1654 2157
          1869 2287 2415 714 1167 1633
          2713 153 2159 1867 49 1785
          2719 1714 1504 787 1381 2285
          390 284 2490 2671 2443 1050
          1049 12 87 2416 2672 2587
          1291 1888 1290 2441 2588 2290
          1190 658 1007 1632 2031 46
          829 2395 2336 827 2722 1377
          606 822 1312 2489 2673 2315
          823 1868 283 2644 1164 2230
          1003 1403 2724 2698 89 1761
          2471 2542 2288 2617 1784 896
          91 1473 2036 1655 507 2252
          2317 166 2674 1082 420 389
          1053 578 1337 288 1272 11
          1046 2158 825 2057 1763 2007
          421 894 2207 607 1054 1532
          682 1890 2231 1336 2518 923
          447 236 1105 1006 1103 290
          1608 1845 1221 1922 1188 201
          2208 2552 1870 1591 2289 1106
          1375 711 415 2444 2442 43
          826 1893 1474 2699 165 579
          2134 828 2338 2519 1446 2720
          2726 2037 293 1764 449 2589
          2618 1465 1554 1690 2417 2291
          2725 1592 1143 1894 1953 1786
          1222 2318 2723 1273 2727 2389
          1846 2038 1895 1740 2645 2619
          2728 239 1718 2445 97 2392
          2008 96 2621 928 1267 1238
          2730 1056 926 1954 1107 1206
          1808 1847 930 334 303 2544
          1112 1113 1110 950 110 2732
          608 2681 832 311 106 2232
          2391 1656 2646 1062 2253 1169
          1475 2210 1404 2293 1533 564
          312 2418 298 486 2522 2419
          1223 459 397 662 180 660
          936 169 1010 1055 789 1111
          1787 1338 14 98 1741 391
          1826 1788 632 831 108 55
          901 1011 2731 1871 1316 100
          451 1450 413 663 2393 1717
          1447 1742 1660 2734 2523 2163
          2650 902 717 2319 1743 931
          2040 1317 1314 2675 2647 1057
          2591 1224 242 241 1594 555
          2550 933 1356 1059 1315 296
          2700 2320 111 1058 1109 425
          927 944 307 1691 2648 1508
          154 2344 1789 385 1405 308
          720 1170 2679 844 1695 59
          839 1449 1276 1144 1448 1294
          1060 221 394 2493 316 836
          317 310 2106 2676 331 2520
          1535 1014 1406 530 2237 1319
          485 557 2649 791 1506 170
          1008 52 1210 2651 114 792
          2339 904 847 302 1225 426
          2135 1274 1108 1571 450 1358
          837 1715 581 175 457 1534
          2212 1957 178 1958 2438 1959
          1850 423 1790 1295 1117 2341
          24 2546 1694 2735 945 1318
          2446 1192 585 335 728 835
          510 1744 2590 2625 329 845
          1926 834 2058 112 458 1659
          1747 393 2521 4 1378 610
          452 206 1988 1357 1252 490
          946 2082 2447 2041 2233 1208
          1145 2677 1293 2209 2166 324
          2254 2234 489 1536 209 50
          1570 1171 1507 2702 685 2083
          580 453 1120 1692 539 2733
          454 1061 2009 1239 2492 897
          1268 661 392 1635 1609 300
          2011 1355 2652 1987 1811 2396
          1716 2136 2105 1084 1323 1407
          2593 1658 898 2340 584 2701
          23 1745 942 172 270 1410
          905 1505 2039 1593 1275 2081
          554 2678 538 25 1746 1960
          723 1876 932 207 2592 1874
          223 1873 56 1322 1009 314
          2547 903 899 2545 488 417
          1016 1794 2473 1923 2703 631
          2680 174 2624 1359 2620 1122
          1568 2211 556 2653 309 833
          208 854 1071 2059 1379 2255
          509 790 2345 508 1569 2361
          635 105 1211 2394 1537 934
          2060 2061 1226 1662 2257 115
          830 1207 2167 1872 2137 2294
          1431 395 935 1320 567 2594
          318 1172 332 937 325 900
          1924 1321 2362 2342 301 2258
          1875 2495 1086 321 2256 204
          313 54 521 2494 320 1213
          716 1792 1611 1476 726 1809
          205 1849 718 102 304 1380
          523 1610 487 2548 2364 1339
          2448 1174 61 1146 724 1829
          2365 33 34 1697 2682 1340
          1509 1065 730 949 2596 1928
          2526 1896 583 1848 1897 1793
          1927 611 2161 850 2742 846
          566 2160 1013 177 2626 939
          586 1965 2235 305 940 1085
          906 1124 2086 725 522 2010
          1698 722 116 1693 171 1209
          414 553 2420 1661 938 2525
          2292 1277 109 1955 1925 424
          541 1477 2654 2363 1063 315
          396 542 1191 842 222 951
          2165 1173 1114 943 687 1408
          58 1696 118 1432 729 1175
          1066 2397 104 2084 2595 1069
          2347 35 1478 1017 1451 1148
          1119 456 1961 796 2107 1612
          2524 2109 398 1851 1573 1212
          2705 1083 2739 1626 856 2551
          1791 794 2111 113 1512 2162
          1638 540 1147 245 427 1240
          1636 1018 853 1088 319 1510
          1637 15 1116 1828 107 1243
          1115 2704 326 2139 2496 731
          633 2236 2737 1810 1657 2239
          1409 1572 2343 2622 558 2012
          2549 511 1253 2164 1878 843
          838 306 1068 1827 1121 57
          1070 1118 60 271 1812 634
          1748 2628 2684 117 2683 2497
          1298 1015 636 1341 840 2736
          2213 244 795 2388 247 1511
          2085 1929 5 2476 2629 1382
          1214 1665 2238 851 1877 176
          1241 1297 686 2259 1956 852
          664 659 2321 941 101 2623
          727 1360 328 2655 322 327
          2498 2062 1254 1299 323 330
          2597 2043 156 2260 1324 1064
          2475 1072 559 1067 2110 2214
          2478 1411 1663 1296 2527 2740
          2264 1215 1193 2366 2630 1087
          1964 2346 947 2322 1194 2738
          531 2656 2263 461 1513 948
          721 1962 2477 2215 2741 51
          1242 2261 1963 460 1989 1574
          2296 2627 2262 1412 179 1795
          2168 1123 2108 2348 2295 2398
          1195 1664 1479 2449 2013 2743
          2014 2367 2169 1126 953 2018
          121 955 2685 974 2300 738
          1967 1073 741 612 674 2686
          2115 2632 341 2746 670 1596
          673 1559 1853 975 6 1282
          2116 2170 348 1539 1179 119
          2112 1749 857 120 337 338
          524 1129 797 132 355 2349
          1575 336 513 1830 1326 960
          2301 1971 122 512 2015 248
          2064 350 2368 862 2421 1931
          492 1796 2480 1343 1433 2479
          739 2369 803 2016 213 1595
          1581 1968 2744 252 400 1719
          1797 67 1750 613 2020 1255
          1515 2265 2555 732 1519 1492
          1639 1516 1699 2399 1517 733
          249 211 688 493 549 588
          124 1970 1578 134 1969 36
          800 1177 1178 543 2528 1149
          1256 735 2631 431 1279 2216
          736 1453 1020 2266 665 1538
          749 1597 251 1021 130 801
          1852 747 864 1555 1414 1898
          2657 2173 1452 2177 432 1930
          952 1125 591 858 189 2023
          966 1540 64 1283 2067 798
          1933 1514 907 1417 2687 863
          1383 428 343 2063 562 637
          1972 560 1518 2298 2370 1723
          2180 66 1766 210 1012 2500
          1278 1769 2553 1386 1413 2634
          1751 532 2422 2748 37 272
          157 2689 2401 491 666 638
          2241 1480 1580 1579 1904 1544
          2176 1973 2024 1932 2178 1541
          545 1022 956 181 1613 1128
          7 462 1074 257 1542 1342
          2218 1454 2482 2087 969 1345
          1576 2423 2299 2026 957 403
          1990 1361 2065 1362 2117 1301
          2297 2600 590 1300 1815 2068
          1385 744 2426 587 1384 2017
          2427 1722 961 2179 434 1672
          1280 1627 1490 2240 2323 908
          2302 2219 641 429 1934 2499
          799 804 734 568 357 1577
          26 669 2602 1724 352 465
          640 1721 2140 963 1666 126
          1668 1456 2113 1831 2598 1387
          2141 494 184 737 1900 617
          401 2745 1640 802 1325 2425
          1832 1545 2529 1228 224 1935
          1753 1752 212 1899 1364 1229
          2171 1641 910 2424 2747 1388
          1130 860 255 433 2603 2022
          1615 2599 1642 743 561 954
          2658 859 689 1127 750 1363
          1546 2217 2531 1817 1434 185
          2184 1415 1667 615 2027 1614
          639 1416 2025 250 1481 868
          752 2451 2114 2400 1491 27
          345 430 340 1543 1281 2481
          2267 1284 68 253 544 2324
          358 2749 2172 1854 2186 464
          1520 675 214 1616 1700 1089
          614 909 435 976 1019 1976
          1286 867 1344 62 644 1176
          254 861 402 805 593 1455
          2066 133 182 959 1389 1671
          356 183 2604 399 1257 2750
          1670 2019 17 1230 463 2428
          806 1991 128 1227 616 123
          1767 2501 672 2688 1768 1023
          2660 2554 2556 2557 2633 125
          353 742 964 667 690 2185
          1090 347 1902 466 2242 514
          1855 2088 1856 1903 1798 1814
          1599 2021 546 2268 965 1879
          1725 643 2659 2502 1132 187
          2174 63 2706 349 2530 970
          592 339 65 958 344 1813
          127 2220 351 1133 1669 2601
          1150 745 746 1598 2558 525
          2483 16 2532 1720 256 871
          748 1418 911 1390 2533 1937
          1258 1327 962 1557 1617 342
          346 642 1901 1365 2044 129
          1328 1905 1992 69 2175 354
          668 967 1131 2350 971 1285
          1880 404 2373 131 2371 467
          973 589 865 1419 2707 2559
          2243 1936 751 740 1643 2561
          2069 1369 2144 2560 495 2143
          1558 1370 186 866 1993 972
          2142 1618 2484 2181 1556 1816
          1857 2182 2752 1457 2351 1975
          2089 2183 1231 870 912 968
          2372 671 2635 2751 2636 1701
          1024 526 2303 2534 869 1974
          691 1938 2118 2119 1391 1673
          2269 1302 2454 1818 1881 405
          2455 188 618 2562 1482 2453
          1483 2091 2187 2450 2090 1994
          2452 2325 2503 2753 1196 1392
          2402 619 1025 2457 1833 2456
          1674 2563 1420 2403 2458 753
          1858 1181 779 1180 978 2690
          676 1134 1977 1979 1773 1563
          981 2459 873 758 2190 2197
          761 876 1676 781 375 762
          148 2568 1600 1908 258 1834
          1995 471 2404 2305 137 135
          1303 1348 1135 594 437 367
          1091 263 1548 2605 1835 1549
          1437 136 1182 1770 1644 985
          259 1645 409 150 1582 1996
          8 754 369 984 1216 913
          620 1646 1561 1329 1564 755
          194 2504 2205 1459 138 227
          550 2092 872 497 515 1726
          645 1151 496 1152 2145 1799
          917 756 360 1982 1906 261
          1999 2429 1435 2506 361 30
          987 371 990 914 226 533
          1907 1436 2196 140 2573 2507
          264 1551 1912 216 146 1914
          759 2045 2508 992 1978 1197
          1458 1583 547 1422 470 2200
          2374 770 1940 1234 384 469
          2272 1198 265 1484 915 764
          1423 772 2327 877 516 1997
          2376 1708 988 2409 190 262
          692 2120 2270 807 1467 191
          2607 1183 1001 1939 1552 498
          196 1620 2271 1218 696 376
          1092 773 473 884 1366 2536
          1647 2756 2195 1485 766 1026
          2093 1754 266 1836 1261 2326
          260 1461 1702 228 1305 995
          2537 2375 1911 1882 597 991
          1550 1837 2030 1421 158 2574
          1801 998 2191 29 1030 1703
          193 2461 1619 374 2460 372
          1678 2564 1264 1155 694 1941
          2121 1839 500 983 810 502
          2406 2462 2465 1820 2431 596
          2535 1346 1263 1861 1883 2606
          2511 1679 1396 1547 441 808
          2509 625 1438 2610 1998 1075
          1862 1331 2028 989 1709 468
          151 2273 993 475 1259 1649
          563 1771 2377 889 2405 195
          2755 1093 2329 599 144 598
          2609 1772 1621 2430 215 2194
          2189 408 1800 2378 1522 1260
          1562 1704 19 1728 1154 139
          527 517 1199 2148 406 2352
          2757 1909 1029 1802 1838 1439
          2072 595 362 1232 499 2000
          1027 2222 381 380 982 2029
          1706 229 363 1553 1623 693
          1139 159 1707 1095 2565 2566
          2567 2572 1913 1304 624 2505
          225 1460 1028 1630 78 1262
          695 2147 1651 2188 1233 9
          2221 10 1586 2071 1141 2608
          1521 1628 438 1841 1585 2638
          74 1942 1981 410 767 2048
          2193 2146 979 2611 442 1077
          1560 882 1859 980 757 1755
          1860 2328 1821 2353 994 1487
          2464 2070 986 407 1094 2127
          440 809 75 883 1648 1138
          1705 2512 697 1943 39 1803
          1675 1394 1493 760 2198 1622
          2538 142 1153 2576 273 2577
          366 2125 2150 1910 1604 916
          880 1819 2047 1486 1732 2407
          2126 878 368 149 1863 621
          977 646 1462 602 2276 1584
          1864 2466 436 2223 2569 2151
          2661 198 378 2637 1601 439
          1980 649 2468 1822 2411 2570
          811 1287 359 20 2758 2612
          570 1774 2203 73 879 1523
          1680 1624 2463 1347 1824 600
          1804 874 1079 141 2580 768
          474 1524 2204 152 2571 2575
          2192 365 2094 780 2274 769
          763 2304 518 677 2149 501
          1650 143 2046 919 622 2122
          218 2754 1652 1488 812 1397
          1330 2199 1727 1756 72 217
          1393 1468 996 2762 472 1306
          503 2073 71 2003 377 2764
          219 1076 1078 1440 2510 647
          2002 885 370 1307 881 1136
          145 2330 1367 1368 2691 1776
          192 2152 1677 886 379 1840
          1711 1266 2410 1710 2578 1350
          2759 1332 1463 2485 519 2202
          2244 2579 875 534 2306 1156
          364 1758 771 650 77 147
          1731 1489 2001 2761 2277 1915
          648 775 2708 1730 623 2074
          1235 2275 765 603 2004 918
          1333 70 1137 1265 1200 1424
          1983 1349 569 373 2469 2408
          2613 1729 1805 551 890 1681
          1775 2280 197 1526 887 776
          2467 76 2379 997 774 1733
          699 1525 2201 2307 1682 1494
          40 2760 2123 1757 2514 2124
          2581 267 1587 1602 1603 888
          2225 383 1217 698 777 999
          382 651 1629 1219 2278 1351
          2354 2224 1495 2641 1308 2763
          548 2662 1825 2614 443 652
          2226 1140 1469 2432 2154 1000
          2279 1588 1683 1395 2412 1823
          1734 1096 2615 1625 2331 2433
          778 2639 1309 1425 2513 2582
          2153 601 2486 1589 2765 1916
          1496 2515 2245 1712 2470 2640
        </DataArray>
        <DataArray type="Int32" Name="type" format="ascii" RangeMin="1" RangeMax="2">
          2 2 2 2 2 2
          2 2 2 2 2 2
          2 2 2 2 2 2
          2 2 2 2 2 1
          2 2 2 2 2 2
          1 1 1 2 2 1
          2 2 2 2 2 2
          1 1 1 2 1 2
          2 1 1 1 1 2
          2 1 2 1 2 2
          2 1 2 1 2 1
          2 2 2 1 1 1
          2 1 1 2 1 2
          1 1 1 1 1 2
          1 1 1 1 1 1
          2 2 2 2 2 1
          2 2 1 2 2 1
          2 2 1 2 2 2
          1 2 1 1 1 1
          1 2 2 2 1 1
          1 1 2 2 1 2
          2 1 2 2 2 1
          2 2 2 1 2 1
          2 2 2 2 2 2
          1 2 1 2 2 2
          1 1 2 2 1 1
          2 1 1 1 1 1
          1 1 1 2 1 1
          2 1 2 1 1 1
          1 1 1 2 1 2
          2 2 2 1 1 1
          1 2 2 1 2 1
          1 2 2 2 1 1
          1 2 1 1 1 2
          1 1 1 2 2 1
          1 1 2 1 2 1
          1 2 1 1 1 1
          1 1 1 1 2 1
          2 1 2 2 1 1
          1 2 1 2 2 1
          1 2 2 1 1 1
          1 1 1 1 2 1
          2 1 2 2 1 1
          2 1 1 2 1 1
          2 2 1 1 2 1
          1 1 2 2 2 2
          1 1 1 2 1 1
          2 1 2 2 2 2
          2 1 2 1 1 2
          1 1 2 1 1 1
          1 1 1 2 2 1
          1 1 1 1 1 1
          2 1 1 2 2 1
          2 2 1 2 1 2
          2 1 1 1 1 1
          2 1 1 1 2 1
          1 2 1 1 2 2
          1 2 2 2 1 1
          2 2 1 1 1 2
          1 1 1 2 2 2
          2 1 2 2 2 1
          2 2 2 1 2 1
          2 2 1 1 2 2
          1 2 2 1 1 1
          1 2 1 2 2 1
          2 2 1 2 1 1
          1 1 1 2 1 2
          1 2 1 2 2 1
          2 1 1 1 1 1
          2 1 1 2 2 2
          1 1 2 2 1 1
          2 1 2 1 1 1
          2 2 1 2 1 1
          1 2 2 1 1 1
          1 1 2 1 1 1
          1 2 2 2 2 2
          2 2 1 2 2 2
          1 1 1 1 2 2
          2 1 2 2 1 2
          1 2 2 2 1 2
          1 2 1 2 2 2
          1 2 1 2 2 1
          2 1 2 1 1 1
          2 2 1 1 1 2
          1 2 2 2 2 2
          2 1 2 1 2 1
          1 2 1 2 1 2
          1 2 1 1 1 1
          2 2 2 2 2 1
          2 2 1 2 2 1
          2 1 2 1 2 2
          1 1 2 1 2 2
          1 2 2 2 1 1
          2 1 1 2 1 1
          1 1 2 1 1 1
          2 1 1 2 1 1
          2 2 2 2 2 2
          1 1 1 2 2 1
          1 2 2 1 1 2
          1 2 2 1 2 2
          1 2 1 1 1 1
          1 2 1 2 2 2
          1 2 1 2 2 1
          2 2 1 1 1 1
          1 2 2 1 1 2
          2 1 2 2 1 1
          2 2 2 1 1 2
          2 2 1 2 2 1
          1 1 2 1 2 2
          2 1 2 1 1 2
          2 2 2 2 2 2
          2 2 2 2 2 2
          2 2 2 2 2 2
          2 2 2 2 2 2
          2 2 2 2 2 2
          2 2 2 2 2 2
          2 2 1 2 1 2
          1 1 1 2 1 2
          2 1 2 1 1 1
          1 1 1 2 1 2
          2 1 1 2 1 2
          1 1 1 2 1 1
          1 1 1 2 2 1
          1 1 2 1 1 2
          1 1 2 2 2 2
          1 1 2 2 1 2
          1 1 2 1 1 2
          1 1 1 2 1 2
          1 1 2 2 2 1
          2 2 1 2 1 2
          1 1 2 2 2 1
          2 2 2 1 1 1
          1 2 1 1 1 2
          2 2 2 2 1 1
          2 1 1 1 1 1
          2 1 1 2 2 2
          2 2 2 2 2 1
          1 1 1 1 2 1
          1 1 1 1 1 1
          1 1 2 1 2 1
          2 1 2 2 1 1
          1 1 2 1 1 1
          2 2 1 1 1 1
          1 2 1 2 2 2
          2 1 1 1 2 2
          1 2 1 2 2 1
          2 1 1 2 2 2
          1 1 1 2 2 2
          1 2 2 2 1 2
          1 1 1 1 1 2
          1 1 1 1 1 1
          2 1 2 1 2 2
          1 2 1 1 2 2
          1 2 1 1 1 1
          1 2 1 1 1 1
          1 1 2 1 1 2
          1 2 2 2 2 1
          2 2 1 1 1 2
          2 1 1 1 2 2
          2 1 2 1 1 1
          1 2 1 2 1 1
          1 1 2 1 1 1
          1 1 1 2 1 1
          1 2 1 1 1 2
          2 1 2 1 1 1
          1 1 1 1 1 2
          2 1 1 2 1 1
          1 1 1 1 1 1
          2 1 2 1 2 2
          1 1 1 1 2 2
          1 2 2 2 1 1
          1 1 2 1 1 1
          1 2 2 2 1 2
          2 2 1 2 1 2
          2 2 2 1 1 2
          1 1 2 1 2 1
          2 2 2 2 2 1
          1 1 1 2 2 1
          1 2 1 2 1 1
          2 1 1 2 2 2
          2 1 1 1 2 2
          1 2 2 2 2 1
          1 1 1 2 1 1
          2 2 1 1 2 1
          1 1 1 1 2 1
          1 2 2 2 1 1
          1 2 1 2 2 1
          1 2 2 2 2 2
          2 2 1 1 2 2
          1 2 2 2 2 1
          1 2 1 2 1 2
          1 2 2 1 1 2
          2 1 1 2 2 1
          2 1 2 2 1 1
          1 1 1 1 2 2
          1 1 1 2 1 2
          2 2 2 2 1 1
          1 1 2 1 2 2
          2 2 2 1 1 2
          2 1 1 1 1 1
          2 1 2 1 2 1
          1 2 1 2 1 2
          1 1 2 2 2 2
          1 1 2 2 1 2
          1 1 1 2 1 2
          1 1 2 1 2 1
          1 1 2 1 2 2
          2 1 2 1 2 2
          1 2 2 2 2 2
          1 1 2 2 1 2
          2 1 1 2 1 2
          2 2 2 1 2 1
          2 2 1 1 2 1
          1 2 2 2 2 2
          1 1 1 1 2 2
          1 2 1 2 2 1
          1 1 1 1 2 1
          2 2 2 2 1 1
          2 1 1 1 2 2
          2 2 1 2 2 2
          2 1 2 1 2 2
          2 2 1 1 2 2
          1 1 1 1 1 2
          1 2 1 2 2 1
          1 1 2 1 1 2
          1 2 1 1 2 1
          2 2 2 1 1 2
          1 1 1 1 1 2
          2 2 1 1 2 1
          2 1 2 1 1 1
          2 2 1 1 1 1
          2 2 2 2 2 2
          1 2 1 2 2 2
          2 1 2 2 2 2
          2 2 2 2 2 2
          2 2 2 2 2 2
          2 2 2 2 2 2
          2 2 2 2 1 1
          2 2 2 1 2 2
          2 1 2 2 2 2
          1 2 1 2 2 2
          1 2 1 1 1 2
          2 2 2 1 2 2
          2 2 1 2 1 1
          1 1 1 1 1 1
          2 1 1 2 1 2
          1 2 2 2 1 2
          1 1 1 2 2 1
          1 1 2 2 1 2
          1 1 1 2 1 2
          2 1 1 1 2 1
          2 2 1 2 2 1
          1 2 2 1 1 1
          1 2 2 1 1 1
          2 1 1 1 2 1
          2 2 2 1 2 1
          2 2 2 2 1 2
          1 2 1 2 1 1
          2 2 1 2 1 2
          2 1 1 1 2 1
          1 1 1 1 2 2
          1 1 2 2 1 1
          2 1 1 2 1 2
          2 1 2 1 1 2
          1 2 2 1 1 2
          1 1 1 2 1 1
          1 2 2 1 2 1
          2 1 1 1 2 1
          2 2 2 1 2 1
          1 1 2 1 1 2
          1 1 2 2 1 1
          1 1 1 1 2 1
          1 1 2 2 2 1
          1 1 2 1 2 1
          2 1 1 1 2 2
          1 2 1 1 1 2
          1 2 2 2 1 2
          1 2 2 2 1 1
          2 1 1 1 1 2
          1 1 2 2 2 1
          1 2 1 2 2 1
          1 2 1 2 2 2
          2 1 2 1 1 1
          1 1 1 2 2 2
          1 2 1 1 1 1
          1 1 1 1 1 1
          1 1 1 2 1 1
          2 1 1 1 2 1
          2 2 2 1 1 2
          1 1 1 2 1 2
          1 2 1 2 2 1
          1 1 1 2 1 1
          2 1 2 2 2 1
          1 1 2 2 1 2
          2 2 2 2 2 1
          2 1 2 1 1 1
          1 1 1 2 1 1
          2 2 2 2 2 1
          1 2 1 1 1 1
          2 1 1 2 1 2
          1 2 1 1 1 2
          2 2 1 1 1 1
          2 2 1 2 1 2
          2 1 1 1 1 2
          2 2 1 1 1 1
          1 1 2 1 2 2
          2 2 2 2 2 1
          1 2 2 2 2 2
          2 2 2 2 1 2
          1 2 2 1 2 1
          2 1 2 2 1 2
          2 2 1 1 2 1
          2 1 1 2 2 1
          2 1 1 2 1 2
          1 2 1 2 2 2
          2 1 2 2 2 1
          1 2 2 2 2 1
          1 1 1 2 2 2
          2 1 1 1 1 1
          1 1 2 2 1 2
          2 1 2 1 1 2
          1 2 1 1 2 2
          2 2 2 2 2 1
          1 1 1 2 1 1
          2 1 2 1 1 2
          2 1 2 2 1 2
          2 2 1 2 1 1
          2 2 1 2 1 2
          1 1 1 2 2 2
          2 2 2 1 2 2
          1 2 1 2 1 2
          1 2 2 2 2 1
          1 1 2 1 2 2
          1 1 2 2 1 2
          1 1 2 2 1 1
          2 1 2 2 1 2
          1 1 2 2 1 1
          2 1 2 2 1 1
          2 2 1 2 1 2
          2 2 1 2 2 2
          2 2 2 2 2 2
          2 2 2 2 2 2
          2 2 2 2 2 2
          2 2 2 2 2 2
          2 2 2 2 2 1
          1 1 2 2 2 2
          1 1 2 1 1 2
          1 2 1 1 1 1
          1 2 2 2 1 2
          2 1 1 2 1 1
          1 2 2 2 2 1
          2 1 2 1 2 2
          1 2 2 1 2 2
          2 1 2 1 1 2
          1 1 1 1 1 1
          1 2 2 2 2 2
          1 1 1 2 2 1
          2 2 2 1 1 1
          2 1 2 2 2 2
          2 1 2 1 2 2
          2 1 2 2 2 1
          1 1 1 1 1 2
          1 2 1 1 2 1
          1 1 2 1 1 2
          1 2 1 2 1 1
          1 1 2 2 1 2
          1 2 1 1 2 1
          1 2 2 1 1 1
          1 1 1 2 1 2
          1 2 1 2 1 1
          1 2 2 1 2 1
          1 1 2 1 1 1
          2 1 1 2 1 2
          1 1 2 1 1 2
          1 1 2 1 1 2
          1 2 2 1 1 1
          1 2 1 2 2 2
          2 2 1 1 1 1
          2 1 1 2 1 1
          2 2 2 2 1 1
          1 1 1 2 1 1
          2 2 2 1 1 1
          2 2 1 1 1 2
          2 1 2 2 1 1
          2 1 2 1 1 1
          1 2 1 2 2 1
          2 1 1 1 2 1
          1 2 1 1 1 2
          2 1 1 1 1 1
          2 1 1 2 1 2
          1 1 1 1 1 2
          2 2 1 1 1 1
          2 1 2 1 1 1
          1 1 2 2 2 2
          1 1 2 1 1 1
          2 1 1 1 2 2
          2 2 2 1 2 2
          1 1 1 2 1 1
          1 1 1 2 1 1
          1 1 1 2 2 1
          1 2 1 1 1 2
          1 1 2 1 2 1
          2 1 2 1 1 2
          2 2 2 2 2 1
          2 1 2 2 2 1
          2 2 2 1 1 2
          1 1 1 2 1 2
          1 2 1 1 1 1
          2 1 2 2 2 1
          1 2 1 2 1 2
          2 2 1 2 2 1
          2 2 1 1 2 2
          2 2 2 2 2 2
          2 1 1 1 1 1
          2 2 1 1 2 1
          1 1 2 2 2 1
          2 1 2 2 2 2
          1 1 2 1 2 1
          2 2 2 1 2 1
          2 1 2 1 2 1
          1 2 2 2 2 2
          1 1 2 2 2 2
          2 2 1 2 1 2
          2 2 1 2 1 1
          1 2 1 1 2 2
          1 2 1 1 1 2
          1 2 2 1 1 1
          1 2 2 2 1 1
          1 2 1 1 2 2
          1 2 2 1 2 1
          1 2 2 1 2 2
          2 1 1 1 2 2
          1 1 2 2 2 1
          1 1 2 1 2 1
          2 1 1 1 1 2
          2 2 2 1 2 1
          2 1 2 1 1 2
          2 1 1 2 1 2
          1 2 1 2 2 2
          1 1 2 1 1 1
          1 1 2 1 1 1
          2 1 2 2 2 2
          1 2 1 2 2 2
          2 1 1 2 2 2
          2 1 1 2 2 2
          1 1 2 2 2 2
          1 2 2 1 2 2
          2 2 1 2 2 2
          1 2 2 1 2 2
          2 1 2 2 1 1
          2 1 2 2 1 2
          1 1 2 1 1 1
          1 2 2 1 1 2
          1 1 2 1 2 2
          2 1 1 1 1 1
          2 2 1 1 2 2
          1 1 1 1 2 2
          2 2 2 1 2 2
        </DataArray>
        <DataArray type="Float64" Name="diameter" format="ascii" RangeMin="1e-08" RangeMax="1.3761138099e-06">
          9.8155719514e-07 9.4805593899e-07 9.5795331033e-07 9.0503140918e-07 9.4658891722e-07 8.4404517542e-07
          9.6018620679e-07 8.9679446766e-07 9.9362228283e-07 9.0099076952e-07 9.812649783e-07 9.2679530487e-07
          8.5717680091e-07 9.6246401356e-07 8.4201613211e-07 8.9757677829e-07 9.4753257301e-07 9.4936815002e-07
          9.5889039641e-07 9.509104899e-07 1.1278338476e-06 9.3735018921e-07 1.1134595094e-06 1.1928172162e-06
          1.1576835693e-06 1.0277534599e-06 1.0126040898e-06 1.0764381057e-06 1.022569417e-06 1.012235104e-06
          1.2043171766e-06 1.0267911884e-06 1.1348091233e-06 1.0676615659e-06 1.0852453818e-06 1.160843605e-06
          1.0926302902e-06 1.1031348938e-06 1e-08 1.0059240923e-06 1.0355713479e-06 1.0000163321e-06
          1.3442960824e-06 1.1904949877e-06 1.1243847466e-06 1.0913243818e-06 1.052287607e-06 1.0670151742e-06
          9.8876619484e-07 1.0721421396e-06 1.281551107e-06 1.1836873582e-06 1.1152070579e-06 9.9136410158e-07
          1.167644638e-06 1.2405012118e-06 1.0227880832e-06 1.120875175e-06 1.0485190095e-06 1.1236839061e-06
          1.0153785747e-06 1.16407759e-06 1.0731660319e-06 1.324836877e-06 1.0828989703e-06 1.242944312e-06
          1.0464170888e-06 1.0476548153e-06 1.0517354715e-06 1.1927646024e-06 1.2668382458e-06 1.0623718338e-06
          1.0969814486e-06 1.2687985656e-06 1.1384771811e-06 1.18531985e-06 1.2901904161e-06 1.1620052272e-06
          1.2776925853e-06 1.0184728416e-06 1.1143859497e-06 1.1459779206e-06 1.3142610086e-06 1.1668028755e-06
          1.2512496208e-06 1.2760357988e-06 1.2004292976e-06 1.0597956329e-06 1.3336086413e-06 1.2561671378e-06
          1.1279649405e-06 1.0611344914e-06 1.0479156383e-06 1.1737651351e-06 1.0106121756e-06 1.3400691414e-06
          1.0811109956e-06 1.1292671822e-06 1.1899801837e-06 1.0488051626e-06 1.0357854047e-06 1.2519191002e-06
          1.0486022859e-06 1.0381907955e-06 1.1968106132e-06 1.043319947e-06 1.0549959566e-06 1.010472226e-06
          1.0968314987e-06 1.144497696e-06 1.3577537275e-06 1.1112221188e-06 1.1103250382e-06 1.0971462781e-06