<?xml version="1.0"?>
<VTKFile type="UnstructuredGrid" version="0.1" byte_order="LittleEndian" header_type="UInt32" compressor="vtkZLibDataCompressor">
  <UnstructuredGrid>
    <Piece NumberOfPoints="4536" NumberOfCells="4536">
      <PointData>
        <DataArray type="Int32" Name="id" format="ascii" RangeMin="1" RangeMax="4556">
          2283 1157 2712 1466 2841 3285
          81 2995 2050 1843 820 2054
          3001 704 700 333 2993 3826
          3080 4414 2842 1806 814 921
          2227 719 2382 1947 604 2097
          2437 2055 2049 2128 274 1098
          920 4338 79 2716 1590 95
          1236 1441 481 1142 2692 1037
          1203 276 41 80 4063 1
          92 275 627 2916 2247 2246
          1202 1048 2693 2155 2844 3945
          1288 2414 3596 2840 3398 4323
          1735 45 3284 287 3635 3469
          240 161 2516 230 1865 82
          4287 3739 2051 4216 571 277
          2668 929 1884 2281 1080 3326
          2990 2248 280 1631 1034 3433
          2472 707 3216 3399 386 3120
          1399 2694 1527 3415 3173 2650
          3661 2711 4170 891 3480 582
          235 2310 2487 476 655 2095
          2767 3436 2076 1042 1035 411
          84 231 289 2229 445 3704
          3470 2333 3825 2436 94 4340
          2334 479 3327 1807 1353 387
          2517 1186 2940 1271 2384 2100
          477 3740 163 234 1778 3400
          815 818 1220 705 2664 233
          2228 821 90 702 2356 4086
          2355 2156 1842 1887 1165 2282
          1605 243 2714 1097 482 1250
          1444 291 706 2440 2101 3662
          2250 3324 573 2129 703 3214
          1168 2583 1357 2769 784 2709
          1352 2586 3742 1528 4290 1866
          4339 2717 4419 2616 1445 2308
          4172 505 1443 1100 3401 2360
          1684 4416 3040 1685 1944 1945
          4289 4420 2917 2075 1269 3796
          1245 2696 1686 1185 2434 3172
          654 1101 1102 2383 1917 3215
          3435 4040 1529 1430 3349 2435
          2005 2971 3434 1889 4217 2992
          1777 3238 1247 2006 1158 2972
          4303 3122 605 47 1497 2249
          4200 3872 782 715 295 786
          626 200 21 3121 3471 3015
          1373 2823 4481 1918 2666 2941
          1470 2543 536 572 2335 268
          2945 3832 783 657 2032 2413
          3093 709 2358 4341 1249 2942
          4542 1187 2697 4512 48 2721
          2974 506 1966 4171 1374 3123
          656 2056 3875 2766 712 528
          1251 292 3905 3 3437 2
          2729 3892 286 3833 4199 3893
          4062 537 3503 2133 1244 1400
          4198 1270 1043 3502 1335 3977
          3728 4126 3599 3259 4324 1184
          1160 3468 1033 4418 4292 1166
          1045 4435 3928 1038 1984 1104
          2973 444 1237 4147 1005 1032
          2975 418 2053 294 4004 164
          1919 1371 1951 2991 4173 653
          2132 2396 3258 2695 892 1246
          1844 3573 1442 3947 2103 1765
          3083 1372 2585 155 1161 416
          3727 83 1292 4005 483 1985
          3217 2309 1036 1565 1737 4475
          3688 3798 3618 3877 1738 2381
          2944 1428 2096 2584 278 2868
          924 1099 2541 535 817 1689
          2643 2642 678 2882 2976 4003
          2885 2077 4342 3016 2919 1310
          4304 42 2131 1201 3873 3481
          4415 1779 4042 299 2665 4286
          925 628 2824 168 2710 3800
          2380 2718 2357 3978 237 3039
          4388 4293 1401 893 1321 575
          4288 4545 2994 53 2770 3636
          2996 202 1051 681 3876 1530
          478 1313 1398 2387 2332 448
          2138 1885 2312 1946 2540 609
          232 2052 1163 829 1041 552
          4514 1376 3597 199 2099 1501
          412 2488 1498 3946 1427 22
          167 683 2918 1780 1248 2845
          3574 3874 4515 417 31 1002
          4041 2337 2539 32 86 1426
          3402 2667 4294 3705 2385 2034
          2999 2663 2102 2078 2415 4174
          1736 446 1081 297 2286 2669
          824 1502 1500 279 1949 480
          3744 1504 1354 2079 1920 3769
          3325 4436 4218 3528 3619 1499
          1429 2795 1952 2768 2386 2251
          819 285 2314 4148 1162 4417
          1044 3663 4149 574 2843 4434
          2977 388 1189 3371 713 577
          3729 3768 1739 1039 1782 3416
          679 3637 162 87 3743 2284
          504 3082 4066 2033 3482 3850
          3085 813 3124 3260 520 3237
          3638 2848 2311 422 1205 4065
          1291 2390 1950 1760 2104 1781
          1762 1759 1783 1040 2313 2031
          576 1632 684 1892 1891 1159
          1886 1531 2080 2359 1377 3797
          1471 1713 3081 1047 708 3261
          4263 3640 2315 1653 2939 3741
          3218 816 895 85 2206 2491
          2098 1654 1868 282 2883 3799
          2287 3198 173 2130 3770 1167
          455 220 680 3801 2713 793
          3620 4497 49 4544 1785 1867
          2719 1714 787 710 2285 630
          390 3767 284 419 4476 1204
          4064 3017 2671 1503 2715 1567
          507 3146 2443 2825 922 2035
          3018 1402 1607 44 2946 4477
          1634 3328 1049 3601 4291 93
          1031 12 2847 785 4262 4175
          2316 1687 3350 629 1472 1888
          1311 1290 2441 3664 1190 2588
          658 3745 1007 2290 4438 238
          88 3373 894 2978 1566 3598
          2870 4478 827 606 822 3019
          2489 1052 1688 2439 1986 529
          3948 2673 1948 4241 1334 2670
          203 2157 2644 1869 714 1164
          3000 1633 2724 2230 2159 1403
          3086 2698 2771 153 2471 1606
          1004 2542 4242 3306 1381 2617
          2288 2869 2208 3949 1375 1289
          1784 2490 1655 91 1473 2036
          4006 2317 160 3950 166 4422
          2674 2938 389 420 1053 3576
          2943 1050 3929 3021 3377 1337
          281 3529 3240 11 2416 2997
          2589 825 2587 2947 3689 2158
          2796 4513 2057 1474 1763 2007
          4045 3621 607 3239 4067 3483
          1054 46 2336 3639 3666 1890
          682 2231 2395 165 1336 2722
          2518 1312 3828 3084 4204 923
          4421 484 3417 1921 3504 236
          447 3484 823 1103 283 2884
          3530 3600 1845 1003 4516 89
          4178 1188 1761 3747 4219 4202
          4047 4205 4244 1106 3351 2289
          3379 896 2444 3665 43 4177
          826 3746 3381 3126 1082 3088
          1893 3044 4343 2979 578 3041
          288 3575 2672 4044 3372 1046
          3329 4176 421 579 2826 4423
          3262 3577 828 4201 3668 3622
          4203 2338 3894 1105 3200 1006
          4043 3199 290 2720 4046 4344
          2726 1870 3063 4245 3749 415
          1591 711 3020 3827 2798 2442
          3374 3352 1764 2252 3087 3834
          2772 3748 4546 4547 4499 1222
          2038 4437 3125 1272 4389 2207
          2920 4069 3485 1465 4264 2618
          1532 1554 2134 2417 3532 2519
          4350 1446 3533 1608 1221 2291
          1922 4370 2921 4390 3706 4127
          4048 293 3147 3148 449 1953
          3602 4007 3691 3439 2318 4049
          4458 4392 1740 2699 4150 3641
          3438 4391 1690 4393 3896 4439
          3531 2725 4243 1592 3771 2797
          2037 1894 1786 4517 3878 3330
          3380 3690 1895 3578 3851 2645
          2723 3667 4151 3375 2389 1273
          3043 3376 201 2773 3642 4024
          4265 1846 3022 3127 3418 4068
          2619 2727 3835 3042 3897 3895
          4106 1143 4266 3378 4008 2728
          3836 4070 239 1718 2445 97
          2392 2008 3150 2621 3551 4108
          4071 928 1267 1238 3202 2730
          3203 1107 4207 926 1056 1954
          1206 663 1808 1847 930 334
          303 2544 1112 1113 1594 2851
          950 1110 110 2732 3553 4500
          608 3333 3507 2681 311 106
          836 2232 2391 1656 485 2253
          2646 2800 1062 791 1475 3219
          1169 2293 3243 3128 2210 1404
          3692 3441 486 1533 564 312
          3693 298 52 2522 2419 1223
          96 662 3669 114 2871 660
          936 2774 3174 792 685 2889
          1055 3871 847 4519 14 2980
          1111 391 4206 1338 2775 3908
          98 1741 1225 1826 3750 632
          3505 831 108 55 1011 4345
          2731 1871 901 1316 100 3221
          451 581 413 2393 1717 3579
          1742 1450 1660 2734 1534 2523
          178 4128 3730 2163 3175 3309
          3023 3151 717 2872 2319 931
          3353 3907 1314 2647 1057 3643
          4523 4179 2675 1224 242 2546
          555 538 2591 3979 933 3420
          3552 241 1059 296 2700 111
          1058 1356 1315 1109 2320 4424
          425 944 3046 4220 927 2648
          307 1691 1508 945 3534 4221
          720 2344 385 3263 1405 308
          2679 1170 1789 839 3089 844
          1695 59 2888 3289 1568 2799
          3440 1276 4440 3332 1294 4088
          3670 1060 2493 394 832 4521
          2590 316 310 2106 4089 2520
          317 2676 1926 331 1535 1406
          530 2237 1014 2923 1319 4518
          2649 3906 4087 3223 1378 3554
          2886 3710 1210 3707 459 1008
          2418 3838 397 3149 180 3953
          169 1171 3201 3951 580 2339
          789 904 2854 1787 302 4522
          3205 1108 426 3603 1635 4050
          1268 4504 4153 4479 1355 2827
          1715 4222 3645 1811 457 3510
          1447 3904 1957 2593 1958 2438
          1959 1850 423 1743 902 1790
          4346 3155 1505 1317 3152 3556
          1117 2040 3731 2678 2341 4524
          3473 723 701 3486 24 3909
          3980 4306 3403 3153 2735 154
          1339 1192 4267 3267 2446 3506
          585 335 4441 3561 2620 3222
          1144 309 1449 3331 3509 2255
          3981 2345 2891 3264 1448 509
          221 329 845 3206 2625 112
          834 2982 3837 458 1659 2801
          557 830 3250 3241 3265 3580
          393 610 4009 2041 206 1252
          1506 946 170 2082 2447 2677
          4107 1208 1293 2209 2651 2234
          324 2254 209 4110 2803 1536
          1570 2702 1010 1507 2083 1924
          2733 2922 453 3236 1120 3442
          2135 1061 2009 3487 454 3308
          1788 661 3220 392 837 3671
          3606 2011 300 3709 4152 1987
          3443 2105 175 2136 1084 1323
          2924 4394 2776 4482 1658 2212
          2981 2925 2340 1745 3752 2701
          23 3751 3879 1275 905 1295
          554 1593 25 2039 223 1746
          1876 932 1191 2592 3708 1873
          56 3045 1322 1694 3604 2547
          3244 2473 488 4305 1016 903
          1923 4223 2703 3558 174 3288
          2624 3024 3607 1318 61 3952
          4520 835 510 728 1122 4130
          2211 2949 3472 34 3581 3292
          1379 833 854 1071 3508 3419
          3163 1340 1569 4347 635 4307
          934 2058 2394 1928 2526 2061
          1747 3404 1662 2521 4 452
          2849 1207 4129 3266 1988 1872
          490 2233 3695 3992 2294 3090
          3154 939 567 2166 2594 4109
          3164 935 318 1172 2887 3159
          489 50 586 3711 332 937
          325 4325 4525 900 2362 3753
          4501 301 3512 2857 2492 2828
          4480 1274 1239 1086 897 1571
          450 1358 204 4090 320 313
          1609 54 2010 2652 521 3096
          3356 1209 1716 716 1407 3355
          1792 1476 1809 898 270 942
          4425 584 3176 3955 4396 304
          102 3623 1477 3991 2850 3064
          3313 2081 3912 2846 207 542
          1009 1874 314 3242 3984 4308
          899 2545 2364 3605 3065 3773
          1794 2448 631 2680 3091 724
          2892 556 1146 3269 1829 2653
          3562 3985 3444 3307 3474 1744
          4503 208 1478 1509 3268 790
          3092 3287 2361 105 1065 1211
          796 1537 1961 949 3158 2060
          4010 4131 2596 1896 1848 2927
          2705 583 2257 1083 3694 115
          2167 3446 2950 3624 1793 611
          846 2161 2852 3880 1145 1431
          566 2137 2160 395 4072 3560
          4073 1636 3555 2626 1320 1965
          2235 1018 1382 3204 1088 1085
          940 1692 1124 3754 4180 539
          3004 2342 3514 1875 4309 2495
          321 725 2258 2256 3354 1698
          722 2494 1213 116 1693 4295
          2236 3802 726 2420 1661 205
          938 1849 2292 3911 172 718
          1410 109 1955 3982 3986 3047
          3310 1960 1063 523 2926 3557
          3983 222 3286 951 396 4395
          2165 4442 2548 487 1173 1114
          1068 3755 3245 943 2498 3156
          3025 3311 57 3157 1174 60
          3293 4181 3559 3097 3511 729
          1175 3732 2595 1697 1069 2682
          2347 2802 35 2059 2777 1017
          3734 3712 2628 4502 1119 3910
          117 1298 730 2107 3954 4543
          398 2524 2109 2829 1851 1226
          4526 1791 1212 1897 2739 856
          113 794 1927 540 3672 1512
          2162 4327 850 2804 245 3673
          177 2948 2742 1147 3270 1013
          4246 1240 3536 3445 305 3713
          853 4505 2856 906 3002 4548
          4012 319 4052 3003 3006 4111
          15 3094 3852 522 3067 1115
          4154 3608 326 2259 731 414
          2139 553 1611 171 633 2525
          2239 3312 1409 1277 3048 2343
          1925 2654 4426 424 2622 2549
          4224 2012 315 3829 511 2363
          1610 3515 3803 843 3853 1408
          838 3050 687 58 1359 1432
          2890 1118 118 271 1812 1066
          3988 2365 1748 2397 3357 104
          2084 3733 3095 2684 634 1324
          1451 1064 1148 2497 2778 1072
          456 4348 4051 559 3648 1573
          840 4268 1626 2111 2551 1638
          2213 2388 2998 3881 427 3098
          4076 5 2629 4328 3160 2527
          1214 4075 3854 2238 3423 3714
          1665 3129 4326 4506 1241 1828
          2853 2086 3405 1116 3007 1243
          107 1956 3382 2496 852 2737
          1810 664 3177 1657 1572 4397
          941 541 2858 2623 3161 3956
          1253 2164 1878 328 3839 3994
          327 306 3291 3290 1121 4182
          3930 1827 3772 3334 3987 1070
          4011 3513 1696 3247 3517 323
          3535 330 1299 2874 4251 2683
          2260 461 2597 3989 3068 2477
          3564 636 3066 1015 1612 1341
          2855 3005 4529 2736 3180 3990
          4183 3130 244 795 3051 3649
          2478 2476 2085 4330 2740 1511
          1929 4225 3026 1296 4077 3646
          4132 1215 3407 1193 851 4269
          1989 3335 1877 1510 1637 1297
          2704 4527 4349 2630 3178 686
          4351 3855 659 1964 3913 101
          4372 1360 3899 947 2262 727
          322 4013 3162 2655 2322 3856
          3246 3805 2738 1194 3900 3774
          3777 3806 4091 3271 2062 2263
          1254 4227 3179 1795 3609 3563
          948 3674 3475 2043 4092 2475
          3610 1962 4371 1067 2110 4445
          2552 2741 247 3052 1663 4155
          3582 3272 4444 3804 3422 2264
          176 4184 3647 3383 3840 2296
          3958 2321 558 2627 2346 4226
          4014 3049 3995 3131 4270 3696
          4399 3516 179 2656 3626 3451
          4530 3779 3165 2875 2893 3489
          721 3625 2214 4443 2348 3756
          2295 1411 4249 4459 1242 4498
          3675 3421 51 4352 1963 1664
          3449 4483 4398 4134 3914 3780
          3406 4133 1574 3775 3450 2366
          3898 3993 2013 3132 3957 2743
          531 3488 3249 4528 3758 4331
          4228 1123 156 3857 2168 1513
          4329 2805 2108 3448 2215 3384
          2398 4550 3757 2261 1479 2779
          1087 2449 1412 3447 3778 3248
          2014 3697 2367 4248 2873 4025
          4549 1195 3841 460 3650 3336
          3781 4247 3776 4250 4373 3337
          3698 2169 1126 1129 953 2018
          2685 955 974 2300 738 862
          3388 3386 2951 1967 1073 1968
          741 612 3651 674 2686 2632
          3340 2115 2895 3339 2746 3099
          3996 1596 670 1597 1559 673
          4374 1282 975 6 2116 1752
          2170 348 7 119 3273 1179
          3295 462 2112 4082 857 120
          337 3027 4015 132 524 338
          3294 4252 355 2349 1575 336
          3699 3314 189 4353 4074 2808
          3627 3882 3424 1540 2301 4400
          1971 512 960 64 122 3100
          121 1990 2015 1933 3299 350
          2064 1931 3537 1514 2368 248
          1796 2480 2421 4093 4427 3628
          343 2479 1343 2369 739 4053
          1595 3133 2016 213 3358 2744
          1797 1518 252 1719 2298 400
          4355 1515 613 2020 2323 67
          1750 1255 3629 2862 2550 2265
          2859 1516 3053 4551 2555 732
          1519 1492 4531 1639 210 3225
          211 1699 3611 2399 1517 688
          4186 733 249 124 3134 493
          1578 134 1969 1970 36 3338
          3583 800 1177 4484 1256 543
          2528 1149 3167 735 2422 3135
          2631 341 494 2830 2401 2216
          736 3359 1021 1020 1279 251
          749 2266 665 1538 3274 2952
          130 3452 801 1852 3454 747
          864 1555 1414 1853 3275 1898
          2024 2173 3385 1613 3809 1539
          2177 1749 4254 432 1930 4253
          257 2482 4356 4083 4156 797
          1125 591 3807 3298 513 1326
          966 2023 2067 1301 798 3783
          1417 3069 3736 4446 3782 3676
          492 2780 4552 863 2687 562
          803 1433 637 3389 3760 2953
          2063 2956 2017 1581 1972 434
          560 2928 3715 3585 1723 2180
          1766 66 2499 429 799 2898
          4185 1012 549 3915 3716 1577
          640 2809 2553 1413 1178 2634
          4187 68 3168 3252 2689 431
          2983 157 3883 508 802 1325
          666 4078 4448 2241 491 1580
          3630 1480 224 1904 3186 2176
          1935 1973 2657 3811 545 3455
          1022 1452 2178 212 1541 4188
          3453 3070 1128 3884 441 3960
          3136 1542 3183 4230 1454 2087
          2806 1342 2912 3518 4028 1345
          969 858 3301 1830 4135 2423
          2299 2026 957 3361 3491 3759
          2899 3735 4447 403 2297 2065
          3028 2117 561 907 590 1815
          744 2600 4401 2068 1383 428
          3539 2217 2426 1384 1722 2179
          2427 1672 3456 3584 1280 3224
          4054 1490 2370 2219 4311 2302
          908 2860 3644 2958 4354 4229
          2929 1278 1481 3490 2500 3962
          568 26 3184 669 357 588
          3181 352 1769 1721 2481 3182
          1386 963 126 1668 37 1751
          1831 2598 532 401 2748 272
          2324 184 1900 2894 617 1453
          3717 2745 2876 2172 3719 2425
          3565 638 3959 3587 1579 3315
          2954 3185 1545 1616 2529 3808
          1228 4313 1544 3031 3296 4357
          4485 3297 956 3588 1229 3226
          1074 644 3519 1344 910 1641
          952 2747 3700 860 3107 4271
          1388 1130 3677 3166 2807 433
          3032 255 2022 1615 3104 1283
          2599 743 1361 3961 1300 689
          1127 2782 750 3392 3360 859
          1363 587 1817 1385 4231 2531
          2781 2184 1415 961 1667 615
          2027 1627 639 2240 4403 806
          250 641 3276 1934 3586 123
          752 804 2114 1491 734 3492
          1768 1724 430 340 2602 3652
          3408 465 1281 1543 2831 2140
          1666 2113 1456 4312 2141 4095
          544 737 2930 3101 3917 3810
          1854 3207 675 2186 3316 2877
          4016 4375 1700 1089 1932 3812
          1753 435 2861 2021 3387 1899
          181 2659 1725 2863 1976 1364
          4079 867 4026 2218 2171 3030
          4081 4332 4080 3918 254 1176
          2424 3302 861 1576 593 805
          2603 3885 1642 954 2784 3426
          2658 1362 3277 133 959 1671
          4314 356 3427 183 4429 4136
          1257 1434 185 1546 2750 1670
          17 4316 2019 4055 1416 3718
          463 1614 2025 1418 2810 128
          911 1227 2955 3029 868 2501
          2900 2451 2400 27 3229 672
          345 1023 4094 2554 2556 1284
          2557 2267 1387 3341 253 125
          742 964 2185 358 1640 2749
          642 1902 690 3720 514 1520
          2242 466 1832 1855 464 2088
          3540 3916 214 3390 614 1814
          1599 2787 909 965 976 4137
          2268 546 2931 1019 4158 1285
          4333 3476 467 4189 2785 3931
          3428 4402 4256 2706 349 2174
          63 589 2530 402 3210 3493
          970 65 1455 958 339 1813
          2783 127 3932 2601 1133 1389
          525 746 1598 1150 3538 399
          2558 16 2532 1230 2902 1720
          2428 256 1991 2069 495 3678
          2143 1701 616 1937 1767 4232
          1390 3409 3429 2903 2688 1327
          1557 1617 962 3520 2660 2896
          3254 3251 3227 353 2633 342
          2897 3208 346 1901 3102 1905
          1992 2175 668 1856 1903 1798
          1131 4157 4507 2089 3919 1879
          2350 4460 4272 1231 3784 2502
          1286 3785 2275 62 2373 4255
          187 1132 3786 3103 973 865
          3209 3814 592 2707 3425 2066
          4273 182 351 3105 2220 3679
          1669 4315 745 4428 3762 2604
          751 740 3228 2561 2483 3362
          871 1369 4017 748 2560 3999
          2957 2812 3187 1370 1258 866
          3072 3998 2534 4462 1993 3391
          1618 972 4464 2142 4096 667
          1365 2044 1090 4114 129 3842
          347 3680 3457 69 1328 1816
          354 967 2182 1857 2752 4097
          2351 1975 971 870 3347 404
          2371 2119 4027 1880 912 4486
          3109 3787 131 3055 3106 2864
          3054 1419 2959 2372 344 2243
          2559 3317 671 1643 4553 3813
          2751 3494 2636 4358 3843 4532
          405 4296 188 3631 2562 2533
          4208 2811 3920 2901 869 4465
          3253 3110 2181 1556 3681 1457
          643 2878 2183 3761 3935 2932
          2118 968 3071 4274 3300 3211
          4032 1302 2960 2984 1936 2635
          2454 1818 4317 2144 4258 3188
          3844 4360 3278 1558 618 186
          3921 3541 2484 1974 3458 3303
          691 4461 4319 3033 2453 4318
          3431 1938 3108 3137 3430 3858
          3788 4404 1673 1391 3364 3363
          3365 2269 4275 3997 4359 3934
          2832 2786 2450 4467 2455 1024
          3816 526 3589 2961 2303 4362
          3459 2325 4276 4361 4030 2788
          4138 3815 1483 3963 3933 2933
          2091 4233 2187 4257 4112 2402
          4405 4113 1881 619 3859 3721
          4554 4018 2452 1482 3886 4463
          4029 2503 3073 4031 4466 2753
          3111 3056 3964 1196 4190 1392
          4298 4115 4234 2833 2834 3189
          1994 2090 2456 4033 1674 4159
          2457 4508 2563 2403 1025 4297
          4210 4310 1420 4209 2458 4320
          1833 4555 753 1858 3568 779
          1181 1180 978 2690 676 3523
          4377 1977 1979 1773 1563 981
          2459 873 1907 758 2190 146
          2197 761 1676 876 781 375
          2568 3212 148 1600 1908 1834
          4099 2905 1995 258 471 1348
          2305 2404 3059 3116 3034 3366
          137 135 1303 1135 594 3495
          2835 2120 4556 367 4533 1091
          3113 263 1437 3702 2605 2962
          1549 136 1182 1835 1770 2907
          1644 3280 409 150 3848 259
          3846 1996 754 369 984 3936
          1216 3965 696 913 3010 2908
          4098 3410 3342 620 3114 4192
          1561 3522 1564 1134 755 1329
          2504 2205 1366 2985 138 227
          3525 4235 550 2092 4487 2880
          872 2093 1726 1151 496 1152
          4509 3966 3009 3567 2145 1799
          3967 3319 3632 756 260 360
          1461 1982 1906 1999 1305 261
          2429 2506 3968 361 987 4240
          3190 990 3138 914 226 371
          3526 2968 2815 2196 4449 140
          2573 1550 2507 264 3318 1912
          216 4278 2965 1914 759 2045
          2508 992 1978 4535 193 3682
          1703 3057 1619 1458 3058 3367
          2879 1422 2909 470 2200 2374
          770 372 1940 469 2911 762
          2272 3036 4191 3860 1198 265
          1484 4020 764 772 1423 4139
          516 877 502 2406 2376 1997
          988 1708 2409 3887 2431 262
          4036 1861 1263 3191 1679 808
          807 3393 3279 3343 1183 3723
          2906 1001 1552 1548 989 1939
          3845 1582 3701 2271 3411 1218
          1645 4277 2816 3115 8 376
          773 4101 3937 473 884 1459
          2536 4142 2756 2195 515 766
          497 1026 4534 3569 1261 2189
          4378 3139 4468 266 3818 4019
          2326 228 1702 1704 2789 4238
          30 995 2537 2817 1436 1882
          1838 1911 533 3684 991 2030
          2814 3412 2963 1421 2222 3321
          2191 2574 1801 1551 998 380
          29 3864 1030 4469 4489 1583
          1197 4237 229 374 2866 384
          2460 2564 3686 4488 3112 2121
          915 983 2327 624 3817 2790
          2462 2465 190 1820 596 1346
          3369 1883 2606 1396 4140 3521
          2511 2270 1547 191 437 1467
          2607 625 1438 3591 2610 1998
          1075 3655 196 1620 498 985
          3612 151 3012 475 3683 1092
          1646 1841 4236 1771 1649 2910
          3140 2377 2755 889 195 194
          1093 4056 2405 3969 3543 1647
          2609 144 1772 3566 1485 645
          2430 442 3074 2194 1754 1836
          1260 408 917 3590 1728 4336
          4259 3037 19 3970 139 3477
          4407 4335 1435 4193 2148 1199
          1487 4239 2791 2464 2966 1029
          2352 3169 3460 1909 4321 597
          362 1232 595 1837 2072 1705
          2969 2000 2986 158 4279 381
          982 2836 4470 39 2029 3763
          3922 1675 3395 3685 1678 547
          1706 3035 1623 1139 1553 1264
          159 1155 3862 3075 4363 2572
          1941 2565 2567 1234 2566 1839
          500 2865 1304 3542 225 810
          78 3368 1630 4490 4510 3847
          3231 1262 3414 2904 4035 3722
          2535 3545 1486 2147 692 2509
          3192 4379 977 1586 4100 1233
          4143 2221 2028 4084 1141 1862
          1331 4430 1709 2273 1521 3008
          1628 2813 198 3971 2638 3737
          649 1942 1981 4000 598 599
          767 215 2048 2146 2329 2193
          1621 3865 4376 1800 979 2378
          359 1522 3791 1562 3141 980
          3789 1755 527 4406 4408 1821
          2353 3792 517 994 2967 4450
          1624 407 2375 406 1802 2757
          1094 1439 3320 75 4281 1079
          2881 2964 1027 3725 4102 1138
          3923 3867 2512 3656 697 3496
          1803 2461 4322 363 3924 3346
          1493 2538 1622 1095 142 1153
          694 2576 3592 1913 366 3230
          1460 2577 2505 4537 3142 4471
          1604 916 1028 4283 4034 880
          1397 1819 1651 695 2126 2188
          1732 2407 621 3524 4384 368
          10 3795 9 3861 4118 1864
          4141 3013 1584 3344 2071 436
          2003 1306 2466 1393 3793 993
          2569 2608 468 1259 438 2661
          1585 2637 563 378 1601 4409
          439 1980 3724 1822 410 2468
          2411 4103 811 3544 2570 1287
          3546 2330 1560 20 4334 882
          1859 3863 3653 757 2203 4364
          4536 3143 1523 2328 1860 1154
          1680 4117 4119 2070 986 4491
          2463 3614 440 809 4280 1824
          2127 600 499 1266 1710 1804
          4161 874 141 883 474 2578
          3232 1648 4492 3011 1463 2571
          1943 152 2575 365 2192 1394
          2094 3194 780 3819 760 2198
          693 2274 2913 518 273 1707
          1650 3925 3076 3234 2150 2046
          2125 1910 3593 218 3849 2754
          3687 812 1915 3077 1330 72
          3527 2199 2837 2792 1727 878
          2047 3413 149 1863 3117 3078
          3394 602 3633 646 3830 4124
          4057 2276 3738 2762 2838 1468
          996 3703 2223 503 2151 2073
          2764 3571 1424 4380 3547 1078
          74 4058 569 3889 2987 885
          2510 647 370 1307 4001 3790
          3370 3062 1367 1136 4451 145
          2611 1077 3304 4383 2758 1774
          1368 879 192 570 3654 3322
          197 3888 1347 3972 3659 886
          3794 1677 4059 4194 1840 4122
          2410 1526 774 2759 1524 768
          2580 699 4104 4493 1332 2204
          3193 2202 2579 875 364 2935
          534 2304 769 763 3866 2914
          650 677 267 2149 501 143
          2122 622 3462 3926 1652 1488
          4162 3821 2793 4121 3927 1756
          217 775 4365 1730 2225 623
          765 4144 1462 3941 4116 472
          4160 1333 2934 4021 3939 651
          377 3345 3613 1265 71 1076
          3498 4212 3061 4282 3060 1983
          3500 2002 4381 4382 2469 2408
          4164 2613 3281 4165 890 1776
          1805 2612 73 2691 3233 2152
          1775 4120 2280 379 3461 3257
          2970 1711 776 2820 3171 2467
          1350 76 519 3548 1733 3940
          4261 1525 2485 2201 2244 2306
          1156 2307 2760 3820 771 4037
          1757 147 919 1469 4410 1603
          1731 3594 2001 3196 2761 3255
          2277 3119 2074 4385 1588 3942
          4367 603 1217 4167 1137 4146
          2988 70 4039 999 382 219
          1629 1200 3570 4085 3305 2278
          1349 1351 4452 3831 373 3943
          3902 1440 2937 1495 881 2354
          548 2763 1729 551 4538 1681
          4260 3726 2662 4386 3497 1825
          2331 887 2433 3170 3463 2818
          4412 3464 997 3079 3764 2819
          4456 3478 3595 1682 1494 3118
          2123 1140 2514 2124 1758 1602
          3869 3348 2581 4494 888 3938
          1489 2154 3766 4453 648 2708
          4196 2279 1235 2004 918 383
          4022 777 2936 1395 2794 3014
          3499 1219 3973 2224 2412 4368
          2641 2486 4454 4411 1823 4284
          4002 3466 2839 4145 3634 4387
          1589 3657 2379 4431 3823 652
          3615 2226 4369 2614 2639 4539
          3213 3432 40 3396 3974 3765
          4285 4023 1587 3870 3145 2432
          4366 3235 4215 2513 3616 1000
          3891 1683 3144 3890 4211 4060
          698 4299 3868 3283 601 1308
          4061 4300 2989 3323 1734 3479
          3549 3822 2615 4495 4433 4455
          778 3467 1625 1309 77 3572
          3901 3256 3397 4472 4038 4123
          4457 3195 4337 2582 3976 3282
          2153 2245 4195 4163 4125 3658
          4302 3975 4541 4413 4473 3038
          4166 3550 3501 2765 1916 3903
          443 2470 4540 1496 1425 2515
          4105 2915 3824 2867 3660 4301
          2640 3465 3944 1096 4496 4197
          4214 2821 4511 3197 4213 4168
          4432 2822 3617 4169 1712 4474
        </DataArray>
        <DataArray type="Int32" Name="type" format="ascii" RangeMin="1" RangeMax="2">
          2 2 2 2 2 2
          2 2 2 2 2 2
          2 2 2 2 2 2
          2 2 2 2 2 2
          2 2 2 2 2 2
          2 2 2 1 2 2
          2 1 2 2 2 2
          2 1 1 1 1 2
          2 2 2 2 2 1
          2 2 1 1 1 1
          2 2 1 2 2 1
          1 1 2 2 1 2
          1 1 2 2 2 2
          2 1 1 2 1 2
          2 1 2 1 1 2
          2 2 2 2 1 2
          2 1 2 1 2 1
          1 2 1 1 1 1