<?xml version="1.0"?>
<VTKFile type="UnstructuredGrid" version="0.1" byte_order="LittleEndian" header_type="UInt32" compressor="vtkZLibDataCompressor">
  <UnstructuredGrid>
    <Piece NumberOfPoints="12161" NumberOfCells="12161">
      <PointData>
        <DataArray type="Int32" Name="id" format="ascii" RangeMin="1" RangeMax="12161">
          7901 7591 10808 7597 8833 8861
          7596 1692 3593 6838 566 10777
          3792 7598 9979 9977 7604 2896
          84 7761 5080 3221 5072 9865
          10080 3591 791 569 10825 5103
          4230 7759 91 8862 9984 2264
          1701 2343 2278 7911 1269 1822
          724 4801 7613 2814 1059 1702
          122 6447 619 2898 1276 3603
          8837 1769 4261 4763 573 4231
          249 6854 8865 1770 4232 3239
          6234 243 9992 2011 5623 937
          7920 3607 8866 1707 2302 7625
          5083 7623 7620 795 6237 3614
          10093 2903 7631 796 10832 124
          652 4273 5572 5620 4849 8838
          7940 3617 7639 6821 10000 9889
          7641 7944 4850 10815 9885 659
          6331 1348 2976 3824 10840 1526
          2975 1347 729 3256 1285 1780
          10786 2826 313 6247 1395 329
          305 6330 2822 10112 4851 3224
          801 3265 1717 1290 4772 2003
          1289 146 6251 148 581 4239
          7647 1282 590 128 1543 1403
          3939 6254 582 1354 7644 8841
          10120 4775 258 799 98 6149
          1287 253 1555 2911 7649 2002
          6823 9896 629 4242 1298 10790
          1842 6863 129 95 9900 260
          10129 7810 2006 592 1352 4238
          2351 2014 2834 2352 4818 7655
          9904 8904 1787 8872 10136 7970
          10017 951 8901 1720 1291 10789
          3630 2840 6260 727 97 4820
          2016 3640 8906 256 6262 4243
          1527 3644 7665 2838 591 9909
          717 716 7662 10791 6824 7977
          7819 4245 1726 7822 6162 10793
          3245 8912 9911 10023 1360 3848
          6264 106 2270 7672 2353 102
          6828 6164 7670 11923 871 10818
          10796 1304 947 1359 4779 1363
          288 6163 3658 2279 11897 1361
          8848 633 2271 4263 8004 151
          3752 3661 1793 150 4248 2026
          4864 9931 291 3756 10156 1731
          5573 410 103 316 1737 2281
          3669 1413 2856 11900 3670 109
          407 9929 10820 3228 816 6847
          811 3227 12129 293 9939 11902
          3667 133 9938 817 6387 5077
          1747 10856 7698 6502 8878 1529
          1460 9940 3229 3671 383 5575
          5109 6284 3769 10822 10823 9945
          9948 6396 8042 2866 4831 6831
          8035 8881 6874 641 1370 7717
          8929 8852 3689 6878 4877 333
          666 7713 604 7719 1807 4253
          7712 1533 2869 610 3878 2873
          8045 3888 1755 5583 3230 331
          1860 3695 2874 8854 667 8855
          821 2865 271 2871 638 10061
          4293 115 719 8857 7725 8049
          7733 3250 7724 3694 3687 158
          3781 155 10880 3897 6203 1814
          1332 9960 1062 1325 1530 5577
          294 1428 6200 1377 7885 5079
          2876 3233 3704 4879 2883 607
          299 1382 2010 10806 1817 4880
          385 946 8859 6835 3237 7739
          642 723 7738 7742 3236 1327
          7746 6215 3706 4295 4794 3904
          8860 9091 5264 7750 7594 3354
          7035 11909 9859 4797 2674 5632
          8086 9192 4757 9861 5634 7593
          4367 10070 4547 2372 10990 7896
          7895 6221 11879 2676 8832 6852
          8083 2446 9092 2259 2639 758
          4330 8087 7602 4431 6953 352
          10991 6954 3297 3909 787 1567
          6955 7752 10865 9981 9978 2806
          7754 7893 7601 6956 2263 85
          2888 5340 3439 10995 4760 3789
          3041 2889 2809 9 2892 1177
          1870 1339 7041 11102 351 9093
          1384 3920 4798 5758 4841 276
          987 9863 3442 617 1386 10074
          7603 4368 7599 789 10994 7902
          2262 10208 6116 7903 9098 9096
          7904 1765 4434 792 574 3793
          2807 9099 4370 12132 6225 82
          2964 9100 6118 9866 5636 7608
          8889 1180 8836 568 3299 9986
          350 3712 1336 7609 7610 2275
          1578 1270 6224 387 1343 6958
          9868 959 247 2277 3303 1698
          2377 354 6965 7106 7606 5637
          2285 5218 11910 4372 2 7907
          8864 11936 1767 5639 9101 5154
          950 9102 465 3048 3724 6123
          4374 857 9104 2260 10087 831
          11880 12114 6226 1824 993 2591
          6962 2590 3804 9873 6119 2414
          1827 2265 3717 3240 5155 9103
          6121 11000 1388 5156 5767 9990
          3719 3715 6966 1693 83 390
          41 6961 712 9870 4805 7619
          5763 10090 1066 7768 7769 3805
          2897 9276 3796 2815 87 5082
          6963 6124 2376 988 4766 10999
          733 1710 3300 7617 9879 9105
          3307 6967 391 5152 11914 10214
          2378 11938 4767 2810 6316 1280
          7624 1821 5708 2350 1705 2064
          1998 11001 9875 11003 859 11883
          11972 4436 6321 4893 11881 11939
          7622 790 3604 3602 5159 1279
          6232 2818 575 4379 3807 576
          6320 5275 572 5276 3615 127
          7621 1005 1829 1272 3725 3721
          9993 7777 4440 11886 5768 10830
          3310 244 7926 3605 2817 178
          3722 1277 938 3812 4378 1346
          1440 1274 7627 2313 3608 11007
          7628 9111 11885 392 2819 411
          11887 7050 9109 7927 2604 1070
          7115 1831 1832 6970 1438 9115
          2969 3253 651 3388 9995 4482
          2132 5091 9113 11108 7784 7052
          6883 5711 1711 9881 9882 6969
          1281 7786 5642 11941 7782 7636
          3816 4481 2680 4894 793 4769
          5161 5350 5646 8867 6324 9116
          5643 6968 9118 11110 11008 8840
          5164 9117 10834 11942 8110 277
          9997 961 5772 9291 11109 3930
          2899 8111 4377 2071 11009 11010
          5716 3813 1122 8107 11011 7121
          10814 2382 1579 9883 3728 8896
          3613 5647 10104 10870 7789 9208
          2384 8868 9884 9998 10109 10108
          5223 11112 3391 1181 11118 2904
          4382 11115 5286 5283 8116 5648
          2460 4381 11890 6974 1182 2177
          10001 1444 1396 2685 1775 356
          2978 5166 6246 5285 6240 2905
          1777 12122 5649 11203 2830 4566
          2423 963 1349 1075 2012 1714
          1391 3618 5227 6973 1392 2386
          514 6329 1544 9123 1447 11015
          7643 5781 4812 9120 4383 3155
          3620 548 6976 7947 5228 9212
          1283 2821 3312 6133 6140 1713
          1484 6250 3933 713 580 6249
          1284 9126 5167 2385 8869 8944
          11016 9122 9892 5168 4813 9125
          10233 4278 2832 3314 4498 4569
          1098 2909 11022 11944 2910 6248
          6142 7794 1295 2831 3619 9127
          6351 3317 11017 622 1778 861
          4390 2983 1286 250 7134 2505
          1292 2980 683 4938 2829 6979
          803 4279 1400 11018 2111 4022
          259 6345 2504 6136 6339 6978
          7795 3625 800 11023 739 7800
          4388 10787 3936 3738 862 1837
          11026 1782 2917 4773 7648 5234
          337 4384 6139 6981 11025 4816
          9215 2992 1351 3623 6141 484
          2981 1294 5655 3734 6151 585
          11123 7960 5656 1606 5653 393
          6360 6980 6152 4394 6342 1449
          11027 9129 3404 376 6982 805
          358 6467 2991 6363 4444 10843
          4777 5171 9217 6156 2391 7801
          11223 5657 93 4899 3832 2918
          6148 4241 3319 8136 11127 338
          6153 1356 2609 7807 1722 10009
          968 101 11029 6155 9906 2015
          902 7967 5172 899 7812 1079
          2912 1296 7650 2922 6468 6358
          9134 5661 3634 9219 2995 3735
          6984 315 3737 3635 1788 9140
          1358 9132 7059 9137 10013 628
          10014 1724 10132 802 2610 9902
          359 2395 180 3839 6887 6356
          3948 964 3637 7663 1302 6367
          6154 1223 7063 3837 3632 3642
          7660 806 1589 4244 11034 3321
          6261 11921 5664 3327 11235 5663
          7062 11946 6157 7973 2394 2426
          2926 1081 2079 1723 9144 6258
          3322 12123 2843 6826 328 4445
          6987 6158 10874 3643 3842 3954
          6481 9141 225 6990 3746 1586
          7980 6369 7972 3325 6370 6988
          7065 3840 3363 8141 2692 1725
          6989 6479 5076 9143 6159 967
          10021 9910 7986 2113 8148 541
          3843 7066 7984 7153 3330 4450
          6265 2998 3646 7987 2928 8149
          7154 11895 9147 2429 1591 7667
          10249 8975 3648 4246 7988 6994
          6374 3655 7829 6488 1732 2696
          6991 6993 956 3652 10022 5587
          2396 2844 3748 9225 10847 3649
          3367 5179 5800 6917 874 3650
          7990 7674 29 10027 10142 3365
          11896 5579 1729 3653 7068 7991
          6992 2847 292 3413 8915 3847
          3850 9923 5305 9914 3364 4633
          2615 2359 2653 5730 2345 1794
          9148 11041 4400 1590 10146 105
          2848 2930 2846 10030 11898 5582
          7677 11038 593 9919 3246 9151
          3849 8154 6267 7999 11045 5590
          9149 837 2931 3855 11042 595
          4402 11043 8159 6377 2083 3663
          7070 1186 10152 11046 5581 69
          1790 9155 2433 631 6170 6271
          7826 5670 9228 5308 5238 3659
          1305 2397 9229 7684 9156 1364
          7673 6171 542 406 1128 3002
          6169 11134 405 4781 364 11986
          307 869 875 290 2008 600
          4453 3660 396 8876 5184 1734
          1308 2081 2932 9922 808 9154
          4867 12117 107 1795 7833 7830
          2475 401 752 11926 492 4509
          2655 11050 10154 5673 3759 7073
          872 876 2295 11899 2007 4407
          382 10877 1106 1086 4408 1741
          289 903 2346 838 6172 4249
          381 7690 6382 5732 3766 7834
          3335 110 1736 10161 10162 134
          1733 3761 2398 421 2852 877
          5181 2851 9159 3009 264 11053
          1746 399 2853 6999 554 153
          7689 1491 2547 10033 6385 1735
          11054 6998 3668 1802 5086 11055
          308 9161 263 1854 11051 3662
          7691 5674 3762 9235 7000 7005
          363 3672 4826 3334 9935 5735
          3372 240 3673 11955 1742 3674
          9163 5186 2939 3003 6276 1368
          598 5309 6277 3374 3676 2617
          1316 204 841 11056 1800 5677
          4454 4250 8022 1853 4784 9233
          10855 2657 10857 7008 7002 3675
          9162 509 137 11957 3418 1548
          2474 4785 2621 188 2658 3866
          844 1085 472 108 9236 377
          11059 7699 5680 6184 5192 10037
          9933 7010 5078 7079 11954 11057
          6179 10034 812 11268 635 6829
          1748 9166 1191 1749 11904 1750
          7696 2938 2148 8026 3421 11139
          10171 9937 4787 7080 1313 634
          906 5738 3337 8032 3768 5313
          9167 7694 9941 4252 366 7081
          1857 3765 4288 1798 10044 1419
          2478 65 7701 4411 9943 4829
          5244 6186 4290 11063 3678 11903
          7082 11062 7697 11060 2941 4414
          8031 3871 1418 6187 5319 9240
          10049 11145 10176 3375 9942 3503
          11142 4876 6394 3248 6283 8028
          2437 843 491 5193 5813 3338
          12125 10050 8030 11930 5681 2089
          6188 6870 3679 9944 5812 9947
          9168 3339 2093 7854 8034 6398
          7015 10824 1371 6399 7705 114
          193 3773 1461 237 11148 5744
          9169 766 10180 11064 5684 2861
          5682 5683 2038 3085 9242 5686
          10054 7850 10179 5194 11065 10802
          9172 608 4522 6403 2091 7704
          1804 2864 2948 4417 8039 9956
          11067 3089 5391 3341 908 1421
          2950 7715 2863 8043 7851 847
          1751 7710 2624 7087 1640 3879
          2868 7857 317 1467 2090 10879
          79 1317 1811 9175 7862 7708
          1809 11066 9953 4457 9949 9173
          5199 6292 5685 7711 4421 4254
          9955 11070 3875 3688 1756 3772
          1810 5821 8046 3019 7861 339
          11071 7714 1112 9174 5198 670
          10184 820 342 7859 10062 748
          11069 3686 3884 11075 4836 1808
          11076 11905 3693 219 5197 9176
          6293 3020 6877 1660 6296 1376
          7723 7871 309 7024 3347 845
          2627 1374 6193 7018 7020 5687
          647 1761 7729 3775 2626 672
          456 1424 11077 4790 8358 2407
          7865 5087 668 671 3698 7021
          8053 296 3469 2098 1759 368
          1863 2272 612 11301 3696 5201
          9961 1754 40 312 5692 11960
          885 9177 3346 32 8858 9186
          6300 1752 3777 7727 9180 7734
          639 1318 755 1088 7870 10060
          120 1497 11079 9184 5256 5200
          38 5204 9247 6210 1322 2878
          3234 9250 11932 7726 268 2706
          767 3893 5206 824 9964 11088
          9959 370 10804 825 8884 3095
          1431 3782 10189 5748 9185 1330
          5202 3697 4425 2410 3895 113
          1866 3038 1757 1323 11086 4793
          5209 12137 6424 9965 823 3779
          9251 3902 10066 3350 11907 2958
          11084 1232 7199 5697 7736 7093
          5833 320 5334 3896 450 756
          3700 7889 159 4654 2283 7740
          11092 1329 2635 2097 4427 161
          2632 2884 5703 7732 2885 6613
          1378 4260 2160 7744 7030 9967
          1600 4792 11159 5700 2633 5693
          4462 636 827 3900 11160 9253
          6211 3786 8071 6532 8067 9188
          545 6303 5695 8070 9969 402
          9189 8066 2960 5696 2636 6208
          6217 1471 11093 448 1430 8229
          8074 4296 7888 5212 5704 5101
          9972 9255 6430 615 3906 371
          7096 5750 4430 7098 6214 5258
          5259 2101 2957 3787 6212 2630
          3708 11095 5751 11098 10201 6305
          3435 9382 9387 9190 7748 11963
          2122 5705 3907 8080 1474 3351
          7034 8079 9973 8082 7891 6307
          1601 7747 7897 434 2412 11165
          5214 46 6308 3298 8237 5149
          2891 6313 9191 9860 2675 886
          711 3713 11171 12131 5216 1215
          5338 10992 5148 2596 3911 5706
          4464 7037 6310 6534 7102 2344
          5635 10993 5754 10075 89 5150
          2373 8250 3592 1178 3594 10778
          3918 3716 4888 11172 511 10207
          1071 6433 9196 6223 10779 9097
          10810 9094 7910 7040 9199 9261
          9268 10078 11175 4889 1768 1697
          854 786 9095 7751 539 9867
          3915 5584 10076 5151 3441 8092
          10072 7913 8888 9263 10085 4843
          6440 5219 3800 2059 11103 3803
          4468 4132 7612 4549 5762 8890
          2597 9201 10996 11937 4558 2808
          6117 9264 10215 9874 6964 5640
          4371 1574 10089 1073 788 7773
          11180 8997 4373 11882 335 10828
          2967 7762 2063 1072 7618 9273
          10997 5638 3241 45 3802 6230
          7770 2961 2288 1571 4375 11002
          463 11187 10827 11884 10088 1923
          2172 5585 3924 10306 6125 9277
          3282 9106 9877 1922 176 9872
          10886 4765 2128 2966 9880 11188
          3801 3596 9281 10998 7923 9107
          3927 11106 7929 4479 8267 7113
          6233 11186 10867 50 3723 10831
          3729 11105 9996 2600 11915 1029
          6315 3357 1576 3817 4376 5842
          8891 8100 5597 7774 1271 7629
          3308 8969 5220 5771 10103 5710
          6840 9108 1074 3730 2820 6127
          3806 6 3390 3815 6898 7921
          527 9285 5160 1999 11004 6819
          11005 280 3731 11195 3112 6549
          9110 3309 10418 11918 9206 5644
          9114 6128 5715 8109 2267 206
          4 10100 3814 3311 8112 5222
          5162 7122 7635 7053 5281 11198
          8113 500 220 9207 677 2970
          6241 1442 9296 10106 7787 6453
          560 7054 10315 3823 11113 9209
          11014 714 5776 11889 2134 2418
          5225 3821 10002 11201 6452 11012
          9297 6972 6458 345 282 2107
          9119 11977 11013 52 7792 5718
          1145 6132 738 6332 7951 2907
          2986 6145 443 4898 6129 11120
          2974 9124 9888 200 9301 3254
          940 11202 6454 3397 3398 8124
          60 4385 804 7791 10889 1207
          11217 4814 9305 2688 2985 3056
          6640 6459 6977 10005 10117 3827
          2422 2417 1784 6465 8285 11019
          5169 7646 9895 6341 9211 428
          10234 4900 11212 11021 7955 11213
          6344 7131 1097 6134 5357 4280
          9891 10871 181 4815 11020 11218
          1605 2689 9890 2987 9213 2033
          3628 10015 4023 1123 7953 10125
          11024 1785 9128 7804 550 9130
          4237 970 1239 11028 2825 7645
          12127 485 2919 2835 9133 655
          9898 10788 10842 6361 5720 8903
          4389 7653 5173 11226 941 3361
          7959 5296 6352 9218 5658 1101
          11228 7654 5787 5660 7058 1781
          3945 8842 4392 9131 11978 4495
          5232 7137 11234 7657 9136 3732
          5075 226 4281 8134 9312 7962
          5365 3124 3278 8874 9135 8294
          10134 4622 11033 9903 5791 235
          6843 9138 7818 5170 7651 7141
          7061 11030 6985 11129 2507 5662
          6362 1009 11031 11130 2651 7143
          1928 2462 10844 9139 4395 10135
          4501 5788 5724 6474 4028 6366
          2693 5297 6986 3125 482 4447
          1127 2425 5174 8300 11237 11036
          3639 11032 6161 11893 285 7971
          2428 11979 5794 11035 7064 9905
          1102 11238 9142 5723 10243 4034
          5859 9426 3323 5857 8909 4285
          8844 5177 1303 1103 4778 1786
          8875 6263 3407 2652 1632 7152
          7150 8910 10020 3408 6484 10247
          1148 11373 7067 360 7823 11133
          9326 4037 8314 11375 10024 5237
          5729 3072 1635 2718 2469 9912
          4860 1083 3366 3071 7997 11037
          10141 3747 7069 11040 3329 8152
          5622 11985 4397 10140 2612 5107
          11245 11247 1307 9916 9150 7669
          972 11039 3664 3852 9152 11949
          9924 6165 7675 10253 3070 9926
          7245 2849 10029 11044 8161 10147
          9918 3415 5667 11136 1636 8153
          5580 12128 9915 1592 9331 152
          5671 5306 4398 945 7681 8914
          11987 166 594 2292 3073 6585
          6997 8950 810 4409 2294 11048
          11049 11253 10849 2082 10153 2699
          8005 1015 8006 9337 8162 744
          7072 9153 10851 10150 9927 10898
          2085 11988 2854 11047 1104 5121
          5592 7827 9925 4512 4406 7682
          7692 11052 1903 11260 1084 400
          9335 1411 3333 5672 3331 878
          9158 6177 8011 9439 975 9160
          10039 9341 7175 1899 1796 9230
          7171 7076 11951 7003 5242 4452
          3856 5185 8010 6280 6493 6868
          1611 2937 8018 6180 8014 1189
          5122 599 7006 3077 11262 9930
          1192 202 6274 11265 663 2117
          7693 3373 1224 1365 8174 1190
          5737 6178 7837 2305 11266 7007
          2700 9343 9234 9344 6592 6183
          10267 11058 8338 7843 6175 10035
          5190 6867 5736 2620 996 11140
          7078 10048 1547 6503 8180 9345
          9165 2438 6176 4412 4788 4586
          7695 8020 1801 5311 745 9348
          11956 5191 10167 5740 11061 4875
          6505 3971 11272 7839 1038 1154
          2703 10172 4413 3420 1459 7183
          753 5383 3423 4289 8182 7847
          5741 9351 8983 11147 5384 815
          2403 266 10270 3268 2858 6185
          12009 9239 2859 11277 9354 172
          11274 2190 4456 11993 10177 5246
          998 6285 11149 7014 9359 8347
          9241 6287 8033 7706 8348 3684
          2120 3770 1641 7086 7858 2094
          11281 722 3979 3681 5742 754
          7188 4960 10178 8955 2949 8040
          3340 9170 35 7016 12119 5817
          6402 3426 7709 8880 5689 1859
          5323 4418 5196 2953 6190 4068
          119 6294 8041 10181 11287 4591
          1197 11068 7191 3430 7868 6849
          3342 10275 8203 4962 6400 6606
          3680 9449 3249 3378 2945 80
          9957 1194 1199 11154 5822 9370
          11074 6295 8044 6199 1427 432
          8052 1157 4919 1202 3344 9952
          8364 6892 6194 31 8989 2480
          8931 7263 2664 10190 7025 11294
          9958 11155 4791 7721 5255 3431
          11291 12120 5688 9950 11072 6202
          6412 3774 8373 3345 8856 5745
          11080 9183 11297 2485 5825 6415
          2489 2405 11081 11078 4424 10183
          3682 117 11302 74 6197 3778
          3091 2355 5252 5594 5832 5208
          7731 2159 6427 10805 8220 4256
          8374 2705 1331 3349 9374 9249
          7881 2877 2411 6196 7092 7273
          10065 2631 11089 3436 11308 11085
          10199 11303 5203 5749 1864 11087
          6198 7741 9458 5099 2096 6520
          11082 4294 319 8059 2592 3251
          11090 6836 2409 8060 7877 2634
          7884 11158 8061 8518 3707 9252
          559 8230 195 8224 6302 8069
          9187 3353 2020 6204 7031 6301
          7743 5884 1661 5835 8933 112
          4461 6530 982 9970 10197 10807
          8937 11161 11096 6525 8081 369
          6423 11094 1816 9971 6912 8077
          5702 6220 4463 6209 11997 2362
          2165 673 614 4655 11317 11316
          9383 7207 2672 11164 5213 11097
          4795 496 984 7097 3903 7749
          4837 4838 8995 197 1818 960
          372 1871 9976 3709 7592 1337
          9974 11998 4548 11101 8245 7209
          6114 6952 5707 10286 2710 2595
          9259 8528 10203 2638 3588 7036
          3910 43 9194 6853 11099 7758
          8 6537 6115 4800 10069 2299
          10289 2371 7600 9391 2893 5837
          8834 44 2413 2494 7100 5339
          3912 2061 7039 6539 10288 2104
          3590 8248 6229 11176 8389 2447
          9862 2102 11174 460 10395 3589
          7605 11999 3711 10206 4551 540
          11328 8863 2375 3995 9200 10294
          4369 9197 2060 6438 11329 850
          279 2812 3045 2065 11912 4761
          3356 10826 894 3446 439 8255
          7614 1068 9987 6959 1268 4886
          2678 6122 4439 9262 9270 4433
          7046 10399 7615 6439 11913 125
          10780 10909 2451 7918 5157 1575
          7616 7043 4470 759 9269 7772
          7042 2276 4759 1205 5841 7906
          1093 2640 6120 5760 3305 7611
          3808 2711 9274 5088 6960 2301
          7047 6437 2598 11183 9871 10091
          2379 3302 7108 10094 7216 7044
          7045 7109 4299 9876 11973 3386
          7110 9486 1275 9279 11184 4475
          2105 7049 2713 9202 8263 12115
          11104 6545 1536 414 3598 9203
          2315 4845 2198 9397 2641 5277
          5347 7293 2449 11333 11336 1118
          1706 11185 1823 9991 9204 1919
          2900 10223 2450 7114 4474 7781
          3358 7928 5765 11189 5769 11190
          9284 2176 9401 1708 4807 11888
          5844 5280 2453 5641 11107 5221
          1695 9289 8968 9112 7051 6323
          3052 7630 9205 5764 11916 9286
          11343 10097 177 5846 8894 4274
          9402 5773 10868 7775 653 5713
          11006 992 2456 7117 6446 11976
          7119 4235 2106 7634 6855 6820
          5714 1341 4563 620 11341 578
          11344 5770 10102 5406 9293 5645
          11111 1774 8897 2031 7637 915
          4768 10099 7638 427 676 9294
          1703 7633 501 4613 3818 5352
          9292 10225 1218 10419 5165 6552
          2681 3616 11347 4009 8114 7941
          2977 179 4853 1393 2459 962
          9408 7221 5282 4011 417 303
          4486 9210 528 2714 6325 7946
          1626 6244 11919 3396 5412 7125
          2387 726 61 7055 6327 6636
          6335 6859 10836 4854 6455 6243
          8899 994 6131 6971 10004 11119
          6842 2915 11116 4771 10783 9121
          6975 2828 7790 2605 7945 11943
          3061 5650 8122 1650 7943 1581
          2989 9306 5778 10110 3257 3831
          1006 483 10841 2499 4491 9893
          2984 7056 6566 224 454 7126
          8900 4856 8125 481 4303 3063
          11216 6564 7057 416 10839 9410
          9299 10784 7132 9300 5229 5230
          10123 3057 3315 7127 10010 7128
          1078 10007 1603 10003 11456 11354
          6902 1124 56 5851 9307 5651
          7950 6146 679 5073 3624 6138
          5652 4277 1240 1537 8286 7793
          7961 3320 1183 2506 17 1076
          12116 9214 5420 5360 6143 2419
          6346 9412 4386 5784 6860 6347
          2691 5292 1838 165 7129 8433
          9897 5175 11122 2463 5359 11220
          7966 183 6150 4494 5074 5659
          2608 864 1584 916 7231 11227
          11126 11356 6473 1582 9314 5294
          4441 9419 3838 7142 3626 897
          9894 7797 2925 6983 8296 6348
          4391 5792 11225 7958 8288 11232
          3946 7140 3362 5721 9313 10012
          4819 11128 1585 9318 5084 6257
          3454 8871 286 5790 10241 8907
          3455 10872 8289 2717 2990 7968
          5786 3744 4025 6368 9901 2078
          7060 11360 4901 7816 2076 5722
          10018 5424 10891 9315 2841 2842
          2138 1082 6577 3126 1010 8873
          9908 9222 9008 8143 11361 254
          2137 11894 4446 3833 7311 5235
          8144 5795 8146 10246 9423 7145
          6478 5856 10133 11892 6472 9424
          6483 3326 4448 1630 7151 2994
          9515 11980 9425 3324 9223 149
          2112 7149 7659 10245 4396 9221
          9145 1404 7664 3411 1608 99
          8913 11131 9907 5298 7974 7658
          419 11241 7976 11984 7981 4502
          3955 1208 6485 378 11982 6266
          6845 10893 9324 2511 4942 9913
          2468 185 7316 9428 9920 171
          5666 4504 4038 763 9325 2140
          2369 11242 9328 4040 7668 5797
          7671 10817 4821 4506 6167 9921
          5798 9917 10026 10339 5180 11244
          8452 2347 5373 952 4287 6996
          8847 5178 1037 1939 5304 11249
          4286 7159 11250 2471 10144 688
          1185 184 2512 9011 1312 5239
          3651 10250 2025 6995 10343 8319
          4399 3657 1412 11254 3963 11258
          8012 186 2698 1895 10340 10794
          5117 2141 4042 2845 974 4403
          3368 9226 7992 11257 10025 4861
          5433 11377 10143 2017 11135 2184
          239 7828 4401 7161 809 3665
          9334 7163 2432 9332 6168 7994
          4911 4780 9433 9329 8009 4782
          9437 4041 3416 11950 8007 11259
          10852 7683 5187 1193 3656 68
          2935 5866 1528 10261 10257 9157
          12124 3666 9333 5183 11379 7166
          2616 976 10853 7687 26 3074
          10260 7680 11384 5675 7169 7998
          7686 7835 5734 9339 7074 867
          4513 5805 3336 3757 7248 9231
          2399 4119 3226 9435 7688 3767
          2619 11989 11925 4869 4584 9336
          8851 6174 7840 3280 9014 5733
          2436 1255 8849 5920 6869 8332
          7836 6494 7004 11387 1850 7001
          1187 11261 2116 3332 203 9340
          3860 4871 9232 11391 214 4825
          6391 3764 10800 4585 905 189
          10262 2623 8017 9936 1188 10462
          3857 11271 10821 11386 5676 997
          11389 3011 6830 4520 471 5678
          9349 11953 3763 9237 11901 7180
          11491 9164 8925 5314 8024 8186
          423 1905 7181 6173 2622 5804
          7179 10042 11144 8331 977 7009
          1230 6390 1745 1595 3010 2282
          8345 8178 7700 5679 7182 6281
          11270 11143 1107 9238 5317 1109
          3501 10799 4872 1314 2940 7011
          7702 818 8187 11394 11929 5739
          7256 1457 11146 6282 2726 12136
          7012 9353 2404 7013 4415 11275
          2152 3868 5097 23 6597 5320
          3463 8023 9355 2518 8953 7848
          7083 3162 7185 1856 1803 10858
          5576 4642 5811 8927 9357 2860
          11278 6286 2441 7703 11279 9946
          11399 10903 8984 5388 2154 5743
          2440 4589 2867 11400 10053 6288
          7085 5816 2704 11958 9358 5247
          3683 7084 979 9446 5815 4959
          1508 8194 4324 11152 8037 6507
          7088 11150 3776 5877 5321 3427
          1256 6291 5324 1087 9171 8202
          10273 3886 9361 8357 9362 10803
          3877 4835 11073 11285 11406 6413
          5195 8882 4258 6298 978 4419
          5824 11286 7853 11407 7017 5249
          11405 11959 7190 7720 9951 2406
          10057 9245 5823 3685 8356 3231
          4524 6195 4525 3699 8207 4459
          8055 4458 7716 8360 5826 6191
          7718 9365 9954 2296 5820 9453
          7023 7872 477 10474 11153 6512
          7722 7026 11292 4291 9364 4420
          7866 1531 2484 4423 8206 5207
          4833 6670 8363 10187 10860 11157
          7195 5746 9178 5205 7192 8502
          3874 9179 10861 11509 4422 11299
          1320 7019 9181 4650 8508 7022
          11410 1643 121 2099 2443 425
          3701 1550 5253 1549 10185 2156
          4069 538 6911 11409 2665 9246
          1201 11906 11307 10281 6850 6517
          3169 7028 11408 7027 1266 2667
          2734 8369 9182 6876 695 6910
          1862 7271 11300 5335 9248 3094
          5595 11083 5691 1137 2755 8063
          8064 9962 8883 5332 9968 11412
          8221 1375 4269 1136 9376 5210
          3025 5881 3705 4921 4428 7883
          3432 6418 1815 11305 4538 11310
          11312 7197 1865 4881 1618 4966
          11306 1000 2408 985 3988 7202
          6306 9254 3783 9461 5694 7878
          4429 9963 1090 3433 1043 10478
          6428 5333 10198 2882 3703 7029
          2670 12034 9381 3262 3352 6682
          11162 7094 9463 11163 7887 11962
          451 10483 6213 7032 8522 986
          8377 9966 6218 2708 11311 5699
          8376 5701 77 1645 7205 3438
          2955 7890 8523 8232 5211 8068
          2163 1976 6837 9380 2492 5261
          9256 2671 8234 1617 5260 3990
          2673 2637 1204 9465 6531 4597
          7033 8385 10283 480 8886 1335
          4228 4839 5337 3515 9257 11166
          11170 5262 5215 3440 8939 11167
          10285 8084 11169 11100 4084 1620
          1819 9258 9389 11417 9470 7899
          9193 2167 11318 461 3355 3273
          760 4465 6894 3383 5263 11935
          9195 4884 8244 3384 10077 9975
          7757 2171 11324 7038 11321 5633
          9260 7607 1694 6620 11173 7101
          3043 4554 6617 11325 7103 6540
          7212 4758 4600 10882 888 5217
          5400 3222 5266 8242 11422 11423
          10293 5840 10809 5268 10205 1069
          8391 4432 9265 2062 8835 989
          9864 373 4272 8246 248 11330
          4553 11964 3108 5761 6311 7104
          6547 10292 11178 10885 11911 9267
          9985 12134 6957 3714 3301 7107
          1569 12016 3798 1699 9983 10211
          5271 11427 11177 5153 5343 466