<?xml version="1.0"?>
<VTKFile type="UnstructuredGrid" version="0.1" byte_order="LittleEndian" header_type="UInt32" compressor="vtkZLibDataCompressor">
  <UnstructuredGrid>
    <Piece NumberOfPoints="2643" NumberOfCells="2643">
      <PointData>
        <DataArray type="Int32" Name="id" format="ascii" RangeMin="1" RangeMax="2655">
          1091 1101 957 925 1100 740
          2024 2188 618 929 609 2330
          954 541 955 2083 749 743
          2084 1880 932 613 2401 1953
          611 745 619 2617 1955 42
          275 1484 1049 2192 79 288
          95 80 694 277 295 2077
          1260 2158 276 504 165 290
          2568 760 746 2079 2190 2189
          2023 81 2590 1225 2615 82
          237 601 2078 2082 44 868
          227 1045 1549 937 549 1485
          1771 1486 278 1806 2591 1702
          158 2138 1046 1186 1700 2237
          862 407 1649 1464 695 449
          1463 203 542 1269 1258 953
          603 2533 2534 1833 1701 865
          863 1152 1703 46 202 1929
          2331 1667 1436 84 230 930
          450 1228 1437 2453 231 693
          1048 866 1319 560 1930 1320
          2329 32 1774 232 528 1884
          752 2489 1668 614 605 1776
          281 696 1259 90 2619 297
          765 2593 2 706 1958 940
          1856 1670 2297 1669 1954 1951
          1550 2589 1381 41 1741 1043
          92 871 2505 1090 1382 1552
          1321 2000 157 2618 293 2538
          2537 2022 928 2187 1805 1770
          1294 561 161 283 296 943
          451 927 2191 2121 1882 1621
          2241 1858 2349 1521 2296 2238
          2054 864 751 1465 1807 2380
          2334 1808 1742 505 604 94
          559 31 1952 2452 2123 2328
          2592 2622 1671 1778 240 1834
          1859 1617 1466 409 2433 1262
          2614 1959 1099 1740 2434 2506
          2186 400 1857 1386 399 1357
          2507 700 867 926 2122 205
          1292 2510 1157 1804 2620 1551
          2625 2240 1044 1051 401 557
          1261 741 2539 423 2025 748
          292 456 2259 1618 1356 228
          2239 1324 1524 1383 2535 279
          952 2327 47 562 1522 1462
          453 1744 1435 705 402 1743
          1227 280 1962 2458 938 1860
          2455 234 1488 1326 159 606
          616 86 1965 2616 563 1487
          1208 1885 160 406 2454 612
          1224 530 49 2382 2632 1052
          607 2381 1811 946 1229 2623
          506 1809 48 758 1814 1323
          1094 1097 529 1960 1263 1050
          2567 2508 692 762 303 1745
          156 2332 1210 1881 411 45
          615 1322 1553 1438 2196 503
          1385 2002 1358 1772 2594 2540
          2490 872 2596 11 1773 2337
          1527 1651 1648 1318 88 1526
          229 620 602 1523 1384 22
          414 950 1813 877 1226 931
          1155 1187 21 285 1810 744
          2257 282 261 408 455 2027
          698 1956 2595 1839 1835 2261
          458 1335 2509 697 1747 1812
          934 1095 2029 50 2080 507
          2081 1359 289 754 564 2456
          2405 1957 2536 942 2159 1153
          93 935 875 1317 874 936
          206 949 452 576 1554 566
          747 951 1098 2404 1189 543
          2003 1092 1293 558 1650 869
          608 1746 233 235 567 403
          2198 284 83 1467 294 1047
          2338 1525 2193 870 454 2384
          2581 1325 2435 300 1156 404
          287 764 1883 2402 956 286
          939 1815 610 2001 1555 1468
          2055 1775 1154 750 1093 933
          1327 1932 1 1470 947 413
          941 2087 2511 2339 2088 2032
          632 163 1054 2085 2086 2160
          2197 1440 2403 958 291 457
          945 755 2543 412 1585 1586
          12 944 1296 164 879 2383
          162 2333 2542 544 2569 545
          1931 1387 2335 2460 2260 1439
          85 2621 2544 753 2462 2624
          89 2626 1964 1489 1777 1441
          565 2627 2336 2258 1231 1053
          91 1209 1096 43 1933 948
          2457 410 2004 2195 2541 1672
          87 2057 2058 1862 2194 1887
          2628 1265 1837 1961 299 1328
          2494 756 2459 2059 405 761
          1748 1264 876 1188 2298 873
          2124 207 1963 1704 759 2028
          1416 2056 298 878 1414 1295
          617 1469 2597 1415 1838 2030
          2340 2629 757 1055 2461 1836
          2341 2005 1266 2089 1886 699
          1360 763 2598 2031 2161 204
          1861 2342 2631 1934 2630 1705
          1863 960 1105 971 236 546
          976 2633 639 2343 797 1841
          1779 2406 1966 338 628 1709
          311 969 2414 2573 1110 970
          320 630 314 2141 1968 2204
          1329 959 631 1675 2410 1532
          97 2417 301 1623 167 239
          1363 3 96 1587 961 1330
          977 881 1935 166 1190 114
          1471 426 2418 766 1271 2463
          305 2264 2263 1751 1268 1865
          972 571 98 2436 173 315
          963 1192 108 1816 1676 2299
          2162 55 2437 306 1361 100
          510 460 622 2545 332 2464
          308 2242 1842 2200 462 419
          2091 1528 424 966 2139 973
          1490 1817 169 1442 1864 1674
          2036 1889 979 2407 1056 1749
          243 310 570 111 769 238
          1270 1331 2300 770 1272 1233
          110 984 2345 171 1298 1103
          172 981 777 1390 1109 883
          788 1843 464 461 319 313
          2354 798 1622 1782 106 1750
          1890 1492 1556 2037 625 1529
          2576 339 1057 2514 2243 880
          1783 115 701 1232 982 799
          2007 891 416 1300 1673 892
          775 547 1472 1267 1558 1888
          962 307 796 1158 702 1111
          466 1297 785 459 2467 2344
          1107 703 2465 964 13 1972
          2163 885 967 2035 2060 1711
          264 170 1108 533 1974 2469
          1624 1159 1893 2355 2034 1752
          317 514 467 56 420 511
          58 210 772 2409 512 104
          1754 33 2094 2346 2009 1120
          886 2010 2353 992 2164 2347
          61 1491 1163 1299 1443 2385
          425 1938 1102 2262 302 2491
          2640 1115 709 465 1619 324
          4 211 323 2202 469 1840
          473 337 1753 509 2301 774
          1161 2439 1106 1230 568 2570
          795 782 983 1118 1708 1058
          2466 1710 2006 208 577 1191
          2061 2571 1396 2634 1557 800
          767 2266 327 2199 1620 889
          894 2125 1274 2033 1530 882
          1275 2572 153 1059 623 1302
          23 1892 2408 2201 1967 1388
          2578 1130 471 1973 708 1234
          1625 1389 986 1395 1818 118
          60 265 226 573 1104 214
          2547 266 1060 105 1537 2348
          2512 1362 1867 707 1273 1780
          2516 1166 2548 2574 154 112
          1785 2637 1755 773 535 574
          2026 1337 5 2206 548 1392
          2412 1628 2419 1936 2546 575
          508 52 1679 1303 710 336
          1164 621 421 1168 2012 14
          1236 1122 54 884 53 304
          2008 768 1784 2575 2096 116
          1534 742 209 1193 783 2203
          1937 2210 1677 965 2413 2090
          1559 569 2273 792 1333 102
          1332 1301 2166 1112 2351 103
          974 262 2350 572 980 968
          1493 1394 2599 1211 1304 328
          334 1712 1061 515 1195 1162
          1398 2095 780 531 474 2579
          2438 1129 1334 1866 321 1065
          2144 2205 415 1706 1167 2642
          1306 1062 2268 1391 2145 1678
          991 2601 2142 634 1160 2013
          1977 175 781 790 550 2415
          1680 2638 516 791 326 174
          1495 2515 1891 2386 1626 1397
          2635 2636 1538 2549 1165 417
          2207 2211 2062 1399 2492 626
          704 2265 1393 2513 1496 318
          213 1123 2582 312 1364 2550
          2140 1063 787 771 1819 2165
          2352 34 640 534 1868 322
          2416 2422 1560 776 2600 1194
          1971 1064 329 779 117 1114
          1939 463 2092 35 2580 975
          1652 468 335 1336 1494 2270
          1627 2244 2468 1781 714 1561
          2143 2421 2167 2126 2011 472
          1067 2641 893 1116 1820 2271
          637 1756 1196 1631 978 2518
          888 2602 1276 422 711 242
          1444 470 1562 1970 1305 2093
          2208 25 309 786 2038 24
          993 109 2577 316 2065 101
          629 793 2302 1169 513 1758
          1113 890 1497 2063 536 636
          59 778 1235 177 713 627
          1119 2269 2639 2519 2303 2420
          794 985 2209 1653 789 1757
          51 215 2014 178 1632 1969
          2146 1630 1127 1117 2274 2517
          1068 15 418 107 1126 325
          2551 176 2098 1536 712 1894
          1535 1539 532 635 1237 895
          2493 2356 212 333 1896 578
          1124 633 2127 2169 987 2603
          1869 1131 1125 1629 2440 2387
          263 113 2267 2423 244 1121
          331 1066 2064 1401 2147 427
          1132 1445 784 1563 2552 1978
          2470 2495 1975 2496 989 1128
          1897 1844 1565 330 990 1786
          2554 2553 1713 2388 2272 638
          2168 1564 2275 57 988 2149
          1238 1566 340 1976 2390 1197
          1979 2148 1400 2304 1170 1417
          2389 2441 1895 2150 2097 1588
          641 1133 1134 1899 1898 1716
          1595 1589 2221 1592 665 1902
          2285 2278 806 2223 662 805
          1543 1790 1655 1593 6 537
          2128 342 1277 2099 715 119
          994 1069 999 120 429 1136
          1446 2442 355 2170 434 132
          343 830 1681 896 2068 121
          2308 430 2645 122 245 345
          1239 584 1339 811 801 344
          2213 812 2066 803 1501 897
          2584 181 1402 2214 1637 1633
          1198 2215 1590 657 643 182
          2015 26 1365 1634 476 898
          248 552 183 1002 1591 123
          2217 134 1635 124 2102 1900
          2555 2307 1174 362 587 1847
          579 1849 249 2424 2643 645
          664 1848 644 37 1240 1498
          1419 580 1341 1567 1139 68
          250 1718 1242 1473 479 1654
          2216 1243 130 2473 2129 1502
          1404 348 1940 2016 1846 809
          1845 2305 1244 2411 1759 217
          1787 716 1135 2605 2173 901
          1278 2152 65 64 1610 1941
          2391 1367 1981 366 1788 2105
          518 357 2359 2069 246 1171
          2306 551 66 2284 1172 2497
          67 1173 1980 1544 1070 1721
          1403 36 583 2222 1942 267
          581 2279 1418 1241 717 1794
          1213 184 363 656 436 1499
          341 658 428 1214 433 648
          820 1245 517 2361 822 188
          588 1000 719 1594 1338 2277
          2444 995 802 1344 1073 1907
          1340 720 2100 2357 2360 2358
          1720 1008 2101 1247 1789 1176
          482 1352 725 1541 2174 1075
          1821 1636 475 2171 1904 2067
          1714 653 2017 2443 996 477
          438 1571 2471 1013 2477 2472
          2647 1212 2039 1279 2311 268
          126 1343 347 1715 2521 582
          69 2520 2425 2172 2309 1823
          365 1137 1792 480 663 2310
          655 2522 2280 808 998 484
          660 1596 1795 650 1572 539
          1504 1542 7 900 2604 1500
          1791 718 359 2392 1638 1281
          1405 364 2282 2283 1598 269
          899 1573 2276 1568 2556 2583
          2447 2212 1760 1908 2106 180
          804 1684 815 2112 1901 247
          1377 1872 2365 1569 349 1074
          1599 902 1448 721 1570 818
          1015 654 642 1280 2475 2107
          1307 661 1683 1005 2426 2103
          1606 2281 2312 538 997 1722
          2445 350 1178 1003 1639 1366
          1506 1656 1597 354 1011 1407
          1793 2368 821 2498 1342 826
          2474 2220 1406 1001 1870 63
          2446 1447 356 1604 2644 360
          17 814 831 1009 2245 1657
          1012 2313 2104 2648 1077 1071
          186 1575 2151 1943 1762 519
          1903 252 2131 1602 2393 1576
          128 1601 1717 659 825 1345
          432 1984 1010 1503 1682 1004
          346 27 1822 2071 1138 649
          2218 1796 185 2314 829 1072
          646 1763 722 2219 1200 1824
          647 1376 2316 1600 1216 179
          1507 1574 1283 1006 2070 2499
          2652 1007 807 133 478 1982
          1177 2606 585 1246 2649 487
          1761 2650 2317 435 218 813
          1850 1724 1379 2288 189 652
          1906 586 2110 1217 483 1508
          1505 1871 904 125 1175 1685
          129 1603 352 1825 905 1140
          1797 1248 216 131 353 2479
          2286 485 486 2478 723 816
          2476 1308 724 1658 1014 127
          358 2040 2362 589 481 1659
          1282 651 2646 2427 251 590
          1368 727 437 2315 903 1905
          1346 1369 351 1076 1719 431
          219 1609 1723 2557 726 62
          906 1215 2363 190 2523 2364
          1686 823 1199 810 2153 817
          1420 1249 827 824 2130 16
          1608 1851 187 1378 361 2109
          1449 1545 828 2428 1945 1944
          1605 1607 819 2111 2480 832
          2132 2246 2108 2175 1983 2018
          2651 2366 2367 2558 2072 2287
          1347 1725 1016 1611 1727 1151
          1739 1612 859 1986 1987 680
          843 2653 2654 1144 691 1142
          675 1994 839 1990 2290 1726
          491 1252 1946 137 1455 1509
          2046 523 2448 439 135 520
          386 683 9 1179 833 1688
          136 2318 2073 1689 1147 367
          1799 150 841 1456 1510 387
          733 388 1022 909 138 255
          1202 368 2225 734 912 2247
          668 20 2114 1431 1026 254
          2394 1284 369 198 913 2133
          2500 1660 256 1873 194 488
          2154 1451 1371 670 489 1909
          270 2020 1735 1475 671 2559
          1730 493 1354 672 673 1380
          220 442 2248 731 1827 1353
          674 1912 140 1511 2449 554
          146 591 681 1915 1853 1408
          1577 2585 1512 2228 2369 2249
          836 2607 39 379 1019 1989
          2047 2450 1452 1143 522 196
          148 1081 1453 1409 1476 381
          1254 372 1454 677 1474 494
          525 2371 1918 1025 735 1028
          495 1732 553 1687 1690 1995
          540 907 1219 191 2251 2019
          151 192 1181 383 1023 1875
          2118 1450 1579 1033 1826 2232
          1422 1370 2226 1029 847 1662
          1854 1218 736 1309 1764 1578
          1988 75 30 835 502 1201
          2525 1768 2176 1207 1513 378
          490 593 592 40 1852 371
          2289 1348 594 1828 597 1661
          142 1640 2291 1183 2395 1644
          685 1427 1731 258 253 2376
          221 1641 1691 556 1203 1141
          374 393 1582 72 1985 1084
          1802 1078 2373 1798 497 1021
          1728 1642 1765 1410 498 2224
          260 2320 1036 1042 2177 667
          1429 496 2113 1421 679 1913
          1729 729 2502 139 1423 2609
          1919 910 678 1613 2135 2501
          2252 1910 842 2229 2396 730
          1996 521 2045 377 2524 2529
          2075 2041 1874 524 1220 737
          2227 2042 1914 1310 2044 860
          1411 555 1040 1736 1148 380
          1018 1080 77 732 914 1991
          2134 78 1424 1664 2397 1480
          392 2319 1948 1206 1372 728
          1039 2560 2482 1221 1256 1285
          918 2074 1204 2250 1949 2136
          2608 1583 224 1031 2050 854
          71 1257 851 2048 1517 846
          1428 384 73 444 144 2321
          1645 1089 440 1027 1947 193
          441 1766 2372 2254 834 2178
          1222 1547 1313 1250 1180 2230
          838 2561 2292 1992 1830 1373
          1767 2377 1184 76 2526 2137
          1920 195 1519 686 152 1458
          1312 917 596 1251 911 2294
          395 2586 2233 396 1515 1030
          2370 1205 271 1666 689 2231
          1477 1643 1646 397 739 149
          373 1145 1434 666 1516 908
          2155 1413 1457 501 1694 915
          1020 1801 1803 2043 2253 598
          2115 1083 599 1311 2484 74
          921 1734 1351 1829 2486 19
          837 1349 145 669 1737 1426
          1615 1082 2374 1911 1350 1412
          1663 2528 2527 225 1693 1514
          1997 1876 1928 2179 849 2076
          1581 155 445 1017 2293 143
          1253 1024 676 223 500 1433
          1695 1614 2481 840 1425 1800
          1290 2323 382 916 1733 1255
          2398 1374 394 1150 70 446
          688 1032 10 1923 1088 2483
          1518 1430 375 2322 2116 1692
          595 1079 448 1479 259 1085
          200 1580 141 2255 2181 1993
          1086 1520 492 2530 390 738
          2430 2655 2235 2429 2612 1314
          2503 2180 1146 682 147 385
          222 1432 1478 922 920 1831
          2117 1041 924 2399 1087 1459
          858 201 443 861 1287 199
          2610 844 919 845 684 2487
          2051 2562 1877 1769 2182 2052
          852 2504 1927 499 2488 2157
          1289 1461 1185 2156 2375 600
          1483 1546 257 850 391 389
          370 376 1998 1182 1916 1950
          1917 1286 1034 2563 687 1616
          2611 2049 2588 2324 273 1035
          2431 8 2234 2053 527 2485
          1738 2400 2021 2119 1924 1584
          2120 1926 1647 1878 853 1223
          2326 1665 29 848 1355 2531
          1921 1855 1315 272 1149 1375
          1832 1922 2379 2236 1697 2432
          274 1460 1696 1291 1038 447
          1698 2564 2325 1037 2378 2566
          856 1999 923 526 2565 2183
          2184 1481 2256 2185 855 1548
          2451 197 2587 1925 857 1316
          398 1288 2532 1699 2613 2295
          1482 690 1879
        </DataArray>
        <DataArray type="Int32" Name="type" format="ascii" RangeMin="1" RangeMax="2">
          2 2 2 2 2 2
          2 2 2 2 2 2
          2 2 2 2 2 2
          2 2 2 2 2 2
          2 2 2 2 2 1
          2 1 1 2 2 2
          2 2 1 2 2 2
          1 1 2 1 1 2
          2 2 2 2 2 2
          2 2 1 1 2 2
          2 2 2 2 1 1
          2 1 1 2 2 1
          2 1 2 1 1 2
          1 2 1 1 2 1
          1 1 2 2 1 1
          2 1 2 1 1 2
          2 1 1 2 2 1
          1 1 2 1 1 1
          2 1 1 2 2 2
          1 1 1 2 2 1
          1 1 1 1 1 1
          2 1 2 2 1 2
          2 1 1 2 2 2
          2 1 1 2 2 2
          2 1 1 1 2 2
          1 1 1 1 2 2
          1 1 1 2 1 1
          2 1 2 2 1 1
          1 1 1 2 2 1
          1 2 2 2 1 2
          1 1 1 2 2 2
          1 2 2 1 2 1
          1 1 2 2 1 1
          1 1 2 2 1 1
          2 1 1 1 2 2
          1 1 2 2 1 2
          1 2 1 2 2 2
          1 1 2 1 1 1
          2 2 2 1 1 2
          2 1 1 1 1 1
          2 1 1 2 1 1
          1 2 1 1 2 1
          2 1 1 1 1 1
          1 2 1 1 2 2
          2 1 2 1 1 2
          1 1 2 1 1 2
          2 2 1 1 2 2
          1 1 1 1 1 1
          1 2 2 2 2 1
          2 2 1 1 1 2
          2 2 2 2 1 1
          1 2 1 1 2 2
          1 1 1 1 2 1
          2 1 1 2 1 2
          1 1 1 2 1 1
          2 2 1 2 1 1
          2 2 1 2 2 1
          1 2 1 2 1 1
          2 1 1 1 2 1
          1 1 1 2 1 1
          1 1 1 1 2 2
          2 2 2 1 2 2
          2 2 2 2 1 1
          1 2 1 1 1 2
          1 1 1 2 1 2
          2 2 1 1 1 2
          1 2 1 2 2 2
          1 1 2 1 1 1
          2 2 2 1 2 1
          2 1 2 2 1 2
          2 2 1 2 1 1
          2 2 1 2 1 2
          1 2 1 1 1 1
          2 2 2 2 1 2
          1 2 1 1 2 1
          2 1 2 2 1 1
          2 2 2 2 2 1
          2 2 2 1 1 1
          2 1 1 2 1 1
          2 2 2 2 2 2
          2 1 2 1 1 2
          1 2 1 2 2 2
          1 1 1 2 2 1
          2 2 2 2 2 2
          2 1 1 2 2 1
          2 1 2 2 2 1
          2 2 1 1 2 2
          1 2 1 1 1 1
          1 2 1 2 2 2
          1 1 2 2 2 1
          2 2 1 2 2 2
          2 2 2 1 2 1
          1 2 2 2 1 1
          2 1 2 1 1 2
          2 1 1 2 1 1
          2 1 1 1 2 2
          2 1 2 2 2 1
          1 2 2 1 1 2
          1 1 1 1 1 1
          1 1 2 2 2 2
          2 1 2 1 2 1
          2 2 1 2 2 2
          2 2 2 1 2 2
          2 1 1 2 2 1
          1 2 1 2 1 1
          1 2 2 1 2 2
          1 2 2 2 2 2
          2 2 2 2 2 2
          2 2 2 2 2 2
          2 2 2 2 2 2
          2 2 2 2 2 2
          1 2 2 1 2 2
          2 2 2 1 1 2
          1 1 2 2 2 1
          2 1 1 1 1 2
          2 1 2 2 1 2
          2 2 2 1 1 1
          2 1 2 1 1 2
          2 1 2 1 1 1
          1 1 1 2 1 2
          1 1 2 1 2 2
          2 1 2 2 1 1
          2 2 1 2 2 2
          1 1 1 1 1 1
          2 2 2 2 1 1
          2 2 1 2 2 2
          1 1 1 2 1 1
          2 2 2 1 1 2
          1 2 2 1 2 1
          2 2 1 1 2 2
          2 2 1 2 2 1
          2 1 1 2 2 2
          2 2 1 2 1 1
          2 2 1 1 2 2
          1 1 1 1 1 1
          2 2 2 1 1 2
          2 2 2 1 1 2
          1 1 2 1 2 2
          2 1 2 2 1 2
          1 1 2 2 1 2
          1 1 2 1 2 2
          1 1 2 2 2 1
          2 1 1 1 1 1
          1 1 2 2 1 2
          1 1 2 2 1 2
          1 1 2 2 1 2
          1 1 1 1 1 1
          1 1 2 2 2 1
          2 2 1 1 1 2
          1 1 2 2 1 2
          1 2 1 1 1 2
          1 1 2 1 1 2
          2 2 2 2 2 1
          2 2 1 1 1 1
          1 2 1 2 1 2
          2 2 2 2 1 1
          1 1 1 2 2 1
          1 2 1 1 2 1
          1 2 2 2 2 1
          2 2 1 2 1 1
          1 1 2 1 1 2
          1 1 1 1 2 1
          1 1 1 2 2 2
          2 1 1 1 1 2
          2 1 1 2 1 2
          2 2 1 2 1 1
          2 1 1 2 2 1
          2 1 2 1 1 1
          1 1 1 1 1 2
          1 2 1 1 1 1
          1 2 1 1 1 2
          1 2 2 2 2 2
          2 2 1 1 2 2
          1 2 1 2 2 2
          1 1 2 2 1 2
          1 1 1 2 2 2
          2 1 2 1 2 2
          1 1 1 1 1 2
          2 2 1 1 1 1
          1 2 2 1 1 2
          1 2 1 1 2 1
          2 2 1 2 1 2
          1 1 2 1 2 1
          2 1 2 2 1 1
          2 1 2 2 2 2
          1 2 1 2 2 1
          1 2 2 1 1 1
          2 2 2 1 1 1
          2 2 1 1 1 2
          1 2 1 2 1 2
          1 2 2 2 1 1
          2 1 2 2 1 1
          2 1 2 1 1 2
          2 2 1 2 1 1
          2 1 2 2 2 2
          1 1 2 1 2 2
          2 1 2 1 1 2
          1 1 2 2 1 1
          2 2 1 1 1 1
          1 2 1 2 1 2
          2 1 1 1 2 2
          1 1 1 1 1 2
          1 1 1 2 1 2
          2 1 2 2 2 1
          2 2 2 2 1 2
          2 2 1 1 1 1
          2 1 1 1 1 2
          1 2 1 1 1 2
          2 2 2 2 1 2
          2 2 2 2 2 1
          1 1 1 1 1 2
          2 1 2 2 2 2
          1 1 1 2 2 2
          1 1 2 2 1 2
          2 2 1 2 1 1
          1 2 1 2 2 1
          2 2 1 1 2 1
          1 2 2 1 1 1
          1 2 2 2 2 2
          2 1 1 1 2 1
          2 1 2 1 1 2
          2 1 2 1 2 2
          2 2 1 2 2 2
          1 1 2 1 2 2
          1 1 2 1 2 2
          1 1 2 2 1 1
          2 2 1 1 1 2
          1 1 2 2 2 2
          2 2 2 2 2 2
          2 2 2 2 2 2
          2 2 2 2 2 2
          2 2 2 2 1 1
          1 2 1 2 1 2
          2 1 2 2 1 2
          1 1 2 1 1 2
          2 2 1 1 1 2
          1 1 2 2 2 2
          1 1 1 2 2 2
          2 2 1 2 1 1
          2 1 1 2 1 1
          1 2 2 2 2 1
          1 1 1 1 1 1
          2 2 1 2 2 2
          2 2 1 2 2 2
          1 1 1 2 1 2
          1 2 2 2 2 2
          2 2 2 1 1 1
          2 1 1 1 2 1
          2 2 1 2 1 2
          2 1 2 2 1 1
          1 2 1 1 2 2
          2 1 1 2 1 1
          2 1 2 1 1 1
          1 2 1 1 2 1
          1 1 2 2 2 2
          1 2 2 1 2 1
          1 2 1 2 1 1
          1 1 2 2 1 2
          1 1 1 2 1 1
          1 2 2 1 1 2
          1 1 2 2 1 1
          2 2 1 1 1 2
          2 1 1 2 2 1
          1 2 1 2 1 2
          1 2 2 1 1 2
          1 1 2 2 2 2
          2 2 2 1 2 1
          1 2 1 2 1 1
          1 1 1 1 2 1
          2 2 1 1 2 1
          1 1 2 2 2 2
          2 1 2 1 1 1
          2 1 2 2 2 1
          1 2 2 1 1 1
          2 2 2 1 2 1
          2 2 2 2 2 1
          2 2 2 2 1 1
          1 2 1 1 1 1
          2 1 2 1 1 1
          1 2 2 2 2 1
          1 1 2 1 1 2
          1 2 1 2 2 1
          2 1 2 2 2 2
          2 1 2 1 2 1
          2 1 1 1 1 2
          2 2 2 1 2 2
          1 2 1 2 2 2
          2 2 1 1 2 2
          1 2 1 2 1 1
          1 2 2 2 2 1
          2 2 2 1 1 2
          2 2 1 2 1 1
          1 1 2 2 2 2
          1 2 2 2 1 2
          2 1 2 2 1 1
          1 1 2 1 1 1
          2 2 1 2 1 1
          2 2 2 2 2 1
          1 2 2 1 1 2
          2 1 1 1 2 2
          2 2 1 1 2 1
          2 1 1 2 1 1
          2 2 1 2 1 1
          1 1 1 2 1 1
          2 2 2 2 1 2
          1 1 1 1 2 1
          1 2 1 1 1 2
          2 2 2 2 1 2
          2 1 2 1 1 1
          1 1 1 2 1 1
          2 2 2 1 1 2
          2 1 1 2 2 2
          2 1 1 2 1 2
          2 1 1 2 2 2
          2 2 2 1 1 2
          1 2 2 2 2 1
          1 1 1 1 1 2
          1 1 2 1 2 1
          1 2 2 1 1 1
          1 1 2 1 2 2
          1 2 1 2 2 2
          2 1 2 2 1 1
          2 2 1 2 2 2
          1 2 2 2 1 1
          2 2 2 2 2 2
          1 1 2 1 2 1
          2 2 2 1 1 2
          1 2 2 2 2 2
          2 2 2 2 2 2
          2 2 2 2 2 2
          2 2 2 2 2 2
          1 1 1 2 1 1
          2 1 1 1 2 1
          2 2 1 1 2 1
          2 1 1 1 2 2
          2 2 2 1 1 2
          1 2 2 1 2 2
          1 2 2 1 1 1
          2 1 2 2 2 2
          1 1 2 1 1 1
          1 2 2 1 1 1
          2 1 1 2 1 2
          1 1 2 2 2 1
          2 1 2 2 2 2
          1 1 1 1 1 2
          2 2 2 1 1 2
          2 1 2 2 2 1
          1 2 1 2 2 1
          2 1 1 2 2 2
          2 1 1 2 1 1
          2 1 1 1 2 2
          1 2 1 2 2 1
          1 2 2 2 1 2
          1 2 2 1 1 2
          1 1 1 1 1 1
          2 1 1 2 2 1
          2 1 1 2 1 2
          2 1 2 2 2 2
          2 1 1 1 1 1
          2 1 1 2 1 1
          2 1 1 1 1 2
          1 1 1 1 2 2
          2 1 1 1 1 2
          2 1 2 1 1 1
          2 2 2 2 2 2
          1 1 1 2 1 2
          2 2 1 1 2 1
          2 1 2 2 1 2
          2 1 1 1 1 2
          2 1 2 2 1 2
          2 1 2 2 2 2
          2 1 1 2 2 1
          2 1 2 2 1 1
          1 2 2 2 1 1
          2 1 2 2 2 2
          1 2 1 1 1 1
          2 2 2 1 2 2
          1 2 2 2 2 2
          2 1 1 1 1 2
          1 1 2 2 1 2
          2 1 1 1 1 1
          2 1 2 1 1 1
          1 1 1 1 1 1
          1 1 1 2 2 2
          1 1 2 2 1 2
          2 2 1 1 2 1
          1 1 1 2 1 1
          1 1 2 1 2 1
          1 2 1 1 1 2
          2 1 2 2 1 1
          1 2 1 1 2 1
          2 1 1 2 2 1
          1 1 1 1 1 2
          2 2 2 2 1 2
          2 1 1 2 2 2
          2 1 1 2 1 2
          2 2 2 2 1 1
          2 1 1 1 1 1
          2 2 2 2 1 1
          2 1 1 1 2 1
          1 2 1 1 2 1
          2 1 2 2 2 2
          2 1 2 2 1 1
          2 2 2 1 1 1
          2 1 2 1 2 1
          1 1 1 2 2 2
          1 2 2 1 1 2
          1 2 2 2 2 2
          2 1 2 1 2 1
          1 1 2 2 1 1
          2 2 1 2 1 2
          1 2 2 1 2 1
          1 1 1 2 2 1
          1 1 2 1 1 2
          1 1 1 2 2 1
          2 2 2 2 1 1
          1 1 2 2 2 2
          1 2 2 1 1 1
          2 2 1 1 1 1
          2 1 1 2 1 1
          1 2 1 2 2 2
          2 1 1 1 1 2
          2 1 2 1 2 2
          1 1 1 2 2 1
          2 2 2 2 2 2
          2 2 2 1 2 1
          2 1 2 1 2 2
          1 2 2 1 1 2
          2 1 2 2 1 2
          2 1 1 2 2 1
          2 2 1 1 2 1
          1 2 1 2 2 2
          2 2 1 1 2 1
          1 2 2 2 1 2
          1 1 1 2 2 1
          1 1 1 2 2 1
          2 2 1 1 1 1
          1 2 1 1 2 2
          1 1 2 2 2 1
          2 1 2 1 1 2
          2 2 1
        </DataArray>
        <DataArray type="Float64" Name="diameter" format="ascii" RangeMin="1e-08" RangeMax="1.3682869549e-06">
          9.1219032692e-07 9.5328244387e-07 9.3203877987e-07 9.4743601232e-07 9.5455095338e-07 8.8776459001e-07
          9.1303606198e-07 9.8519311316e-07 8.942055968e-07 9.2309229218e-07 9.1197544256e-07 9.5499547637e-07
          8.6855417796e-07 9.8810546662e-07 9.5026869763e-07 8.9804914382e-07 9.5788368724e-07 9.6256370903e-07
          9.7089636115e-07 9.6537119847e-07 9.6416048682e-07 9.4992916463e-07 9.3718426285e-07 9.4631022935e-07
          9.6225345958e-07 8.759635279e-07 9.1124052501e-07 9.1213865726e-07 9.9077693957e-07 1.2624301839e-06
          1.2290574747e-06 1.2510039744e-06 1.1317433221e-06 1.0438164523e-06 1.0622316768e-06 1.0465626409e-06
          1.0620267325e-06 1.0553509832e-06 1.2273751879e-06 1.0813547707e-06 1.2155632898e-06 1.1163438791e-06
          1.1478879763e-06 1.1298081065e-06 1.1629738519e-06 1.2068392801e-06 1.1385168604e-06 1.1313318441e-06
          1.2006850473e-06 9.8478114578e-07 1.094335635e-06 9.8686316254e-07 1.0229032752e-06 8.4458474374e-07
          1.0276789981e-06 1.0399464336e-06 1.0122430026e-06 1.3300494502e-06 1.1781971349e-06 1.1000352766e-06
          1.0509111239e-06 1.1223846978e-06 1.0150602442e-06 1.0874644291e-06 1.2815574797e-06 1.156891803e-06
          1.1071294922e-06 1.152349477e-06 1.2582443512e-06 1.0292308388e-06 1.0802624513e-06 1.1818630739e-06
          1.0456623552e-06 1.2154224164e-06 1.0354478021e-06 1.1367660998e-06 1.1010005816e-06 1.0353116844e-06
          1.2540965209e-06 8.8371216757e-07 1.156196256e-06 1.0893138012e-06 9.6661349559e-07 1.1014952917e-06
          1.0732433077e-06 1.1158492055e-06 1.025693945e-06 8.7266000886e-07 1.3631236167e-06 1.3437633197e-06
          1.0677131819e-06 1.1971449554e-06 1.0798836234e-06 1.1122971151e-06 1.0522469167e-06 1.017762824e-06
          1.0566321095e-06 1.1271483192e-06 1.15669188e-06 1.1124683313e-06 1.0390465723e-06 1.106729455e-06
          1.2844416109e-06 1.1899600001e-06 8.8487615027e-07 1.2338787743e-06 1.0147450309e-06 1.1031359546e-06
          1.0457706544e-06 1.2799350954e-06 1.3054739652e-06 1.0999870615e-06 1.0391884861e-06 9.1080980482e-07
          1.1594728647e-06 1.3174278329e-06 1.3578190432e-06 1.0094278184e-06 1.0807668704e-06 1.1281687602e-06
          1.2170328186e-06 1.1726072877e-06 1.2275761272e-06 1.2727399111e-06 1.1478894809e-06 1.0695556664e-06
          1.0866280381e-06 1.2015809642e-06 1.0955885169e-06 1.119790151e-06 1.2454931506e-06 1.0456972255e-06
          9.5895115504e-07 1.1396039973e-06 1.1769827291e-06 1.0202999567e-06 1.1166201567e-06 1.119131145e-06
          1.1837968705e-06 1.2381195073e-06 1.0623478069e-06 1.0557939906e-06 9.3784766292e-07 1.0451378935e-06
          8.3902964374e-07 1.0211114651e-06 1.3610527987e-06 1.3464843357e-06 9.5097455901e-07 1.009556108e-06
          1.1266825255e-06 1.2220966795e-06 1.1596385285e-06 1.1918017516e-06 1.0206352861e-06 8.797284874e-07
          1.276972294e-06 1.0275076551e-06 1.284643912e-06 1e-08 1.272697127e-06 1.1006056482e-06
          1.0864549806e-06 1.1939361253e-06 1.1891502434e-06 9.8602083417e-07 1.2579432537e-06 1.2317418325e-06