<?xml version="1.0"?>
<VTKFile type="UnstructuredGrid" version="0.1" byte_order="LittleEndian" header_type="UInt32" compressor="vtkZLibDataCompressor">
  <UnstructuredGrid>
    <Piece NumberOfPoints="2043" NumberOfCells="2043">
      <PointData>
        <DataArray type="Int32" Name="id" format="ascii" RangeMin="1" RangeMax="2053">
          1091 1101 957 925 1100 740
          2024 618 929 609 954 541
          955 749 743 613 932 1953
          611 745 619 1955 42 275
          1049 1484 79 95 80 288
          1260 694 277 295 92 165
          276 290 504 81 2023 1225
          82 237 601 1321 44 227
          1045 1549 937 561 549 2022
          868 1485 1771 1486 278 158
          1806 1702 862 1046 1700 1186
          1649 1464 695 449 1463 542
          1269 953 203 603 1833 1701
          46 865 863 47 202 1152
          1703 1436 1929 1667 84 230
          450 930 1437 231 693 1048
          1930 866 1319 560 32 1880
          1774 232 1320 1884 752 528
          1668 614 605 1259 1776 281
          696 90 297 765 409 2
          1856 1670 940 1669 1954 1951
          1550 41 1381 1090 760 746
          1551 1044 1382 1552 293 2000
          157 928 1805 1770 161 283
          943 296 451 927 1882 1621
          407 1858 1521 1258 1465 864
          1807 1744 751 1808 1742 1228
          604 94 559 31 1952 1671
          1778 240 1617 1859 1834 1229
          1809 1262 1959 1099 1740 1958
          1857 400 1263 399 1357 700
          867 692 926 1043 871 1292
          1157 1804 401 45 1322 1553
          741 503 1261 423 1294 1358
          292 456 748 1356 1618 228
          1648 1318 1524 1324 1383 279
          620 952 562 1522 1462 1523
          453 1435 402 1743 1226 705
          1227 505 280 1962 938 1860
          234 1488 1326 159 606 616
          1965 563 86 1487 1208 1885
          160 612 1224 406 49 530
          607 1811 1466 887 946 506
          48 758 1814 1323 1094 1097
          1335 529 1386 1050 1960 1095
          303 1745 156 1210 1881 411
          516 557 1051 615 1438 1385
          2002 2025 1554 1772 872 1092
          11 1773 1527 1651 558 88
          1526 229 567 602 1384 284
          22 950 931 1047 1187 21
          285 1810 744 956 282 261
          1815 2027 698 408 455 1052
          1956 1839 1835 458 697 1747
          1812 2029 934 1 1470 50
          507 1359 205 289 762 754
          564 1957 942 93 935 875
          874 1317 936 206 949 747
          951 566 1098 2003 12 543
          1189 1293 1650 869 608 1746
          233 235 414 403 1813 83
          1467 877 1525 1155 870 454
          1325 300 404 1883 287 764
          286 939 610 2001 1468 1555
          1775 1154 750 1093 933 1932
          1327 947 413 1209 941 2032
          632 163 1933 1054 410 1440
          1153 958 291 755 457 945
          452 576 1585 412 1586 944
          1296 164 879 544 1265 545
          294 1931 405 1156 85 1439
          753 1264 89 1489 1964 1777
          1441 565 1231 91 1053 2028
          1096 43 948 298 2004 1672
          87 1862 1887 1295 162 1837
          1328 1961 299 756 1387 761
          1748 876 1188 1055 873 1963
          759 1416 878 1414 617 1469
          1415 1838 2030 757 204 207
          1836 1704 2005 1266 1861 1886
          699 1360 763 2031 1934 1705
          1863 960 1105 971 236 546
          976 639 797 1841 1779 1966
          338 2036 628 1709 311 969
          1110 970 320 630 314 798
          1968 1329 631 97 301 1675
          1623 167 239 3 96 1587
          1190 961 1330 977 881 1935
          166 114 1471 766 1271 1267
          1751 1268 305 1865 972 98
          173 571 315 108 963 1816
          1192 1676 1191 55 306 460
          1361 100 1297 622 510 332
          703 308 1842 462 1528 419
          424 973 1490 1817 1442 1864
          1889 979 1674 1056 1749 243
          310 2034 570 111 769 1752
          238 1270 1331 1272 770 1233
          511 110 171 1298 1103 172
          981 1390 777 1109 883 788
          1843 464 461 319 313 1622
          1782 106 1750 1492 1556 2037
          339 625 1529 1057 706 959
          880 1783 115 701 1532 1619
          799 211 1363 1741 891 1753
          2007 1840 416 1300 426 547
          1673 892 775 1472 1558 1888
          962 307 796 466 1708 1111
          702 2006 785 459 208 1107
          964 889 13 1972 967 966
          2035 885 170 169 1711 264
          1108 533 1159 1893 1302 1967
          1624 1130 514 56 317 420
          467 58 772 984 1625 104
          1754 512 33 2009 1120 2010
          992 61 1890 1163 1166 425
          1299 1938 1102 302 1115 709
          982 465 1232 2026 4 323
          324 473 337 509 508 1161
          774 1164 1106 1230 568 1158
          782 983 795 1118 1710 1058
          577 53 1557 1396 417 800
          767 1784 894 1620 965 1274
          2033 1275 1530 882 153 1059
          102 1974 623 974 23 1892
          980 1388 471 1973 708 210
          1389 986 1395 1818 118 60
          265 573 886 780 1104 214
          1060 474 105 1491 1537 1362
          1334 1867 707 1273 1780 1443
          154 112 1706 1785 1755 773
          1391 535 574 469 1678 1392
          1936 548 1628 175 52 1679
          1303 336 710 621 421 1495
          2012 1168 14 1122 884 304
          1276 1626 116 1534 327 768
          742 783 209 1937 1193 1677
          569 1559 792 1333 1332 1496
          1301 103 1123 262 213 1364
          968 1493 1394 1304 1211 328
          1234 334 1712 1061 1398 1560
          1162 226 515 329 266 779
          531 1129 468 1866 321 1065
          415 1781 1306 1062 1337 991
          5 634 575 1160 1977 781
          790 550 1680 1196 326 791
          174 1891 54 1397 1236 2008
          1538 1444 470 1399 626 704
          1393 25 309 786 1112 318
          316 101 312 572 787 1063
          890 771 1819 34 534 1868
          322 1195 776 1971 1064 59
          1194 778 117 1114 35 1939
          463 975 1652 335 1336 1494
          1627 1561 1167 241 794 472
          2011 1067 178 1820 2013 215
          893 1116 1969 637 1756 1631
          978 107 1165 888 422 711
          242 1562 1970 1305 532 2038
          993 1237 109 24 629 212
          793 1758 1113 1497 640 536
          636 1235 177 713 627 1119
          1131 263 113 714 985 1653
          789 1066 51 1757 2014 427
          1117 1630 1127 15 1126 1068
          325 418 784 176 1563 1536
          1535 1539 1894 635 1978 895
          1169 513 1975 1896 333 578
          1124 633 987 1844 1197 1869
          1125 1629 244 1121 331 1632
          1132 1445 638 712 1564 989
          1238 1976 1897 330 990 1786
          1400 1401 1713 57 988 1566
          340 1128 1565 1979 1170 1417
          1895 1588 641 1133 1134 1899
          1898 1716 1595 1589 1592 665
          1902 806 662 805 1543 1790
          1655 1593 6 537 342 2016
          119 1277 715 994 1069 999
          120 1136 1446 429 517 355
          132 830 343 1681 121 430
          122 245 345 1239 584 1339
          811 801 344 812 518 897
          803 1501 181 1633 1637 1198
          1590 643 657 2015 26 182
          1365 1634 67 898 476 552
          183 1002 1591 123 248 134
          1635 124 1070 1174 362 1900
          587 1847 1849 249 579 645
          664 1848 644 37 1240 1498
          1419 580 1341 1567 1139 1242
          250 1718 68 1473 1654 1243
          130 1502 1404 348 1940 1846
          809 1845 1759 716 217 434
          1135 896 901 65 899 1278
          1610 64 1367 1788 1340 1981
          366 1402 357 1171 246 1352
          551 66 1172 1074 475 2017
          1173 1721 1403 36 583 267
          1942 1241 479 717 1794 184
          1213 363 484 656 436 1499
          341 658 428 433 648 1244
          820 1500 1245 188 1787 822
          1000 588 719 1594 1338 995
          1344 802 1941 1907 720 1720
          1008 1247 180 1789 815 482
          247 1541 725 1569 1636 1075
          1821 1570 1904 818 1714 1980
          1544 653 996 438 1571 477
          1013 2039 1279 1212 1005 268
          347 1343 126 1715 69 581
          1418 1792 1823 365 1137 480
          663 655 998 808 660 1596
          1795 650 1572 539 1504 1542
          900 1214 7 1791 718 1342
          359 1638 1405 63 364 1598
          269 1573 831 1568 17 1246
          1012 1657 1073 1760 1908 186
          1176 1684 804 519 1901 1377
          349 1602 1576 1872 1599 1448
          721 1015 642 1280 346 1004
          1307 661 1683 1606 649 538
          997 582 1722 350 1178 1003
          1763 1366 1639 722 1506 1656
          1597 354 1407 1793 821 1011
          1507 1574 179 826 1281 1406
          1870 1001 1007 1447 356 133
          1604 807 360 814 1009 1177
          585 1575 1071 1762 1943 1903
          252 1379 189 128 902 586
          1601 1717 659 825 1345 654
          1010 1503 1682 27 1822 1138
          1871 904 185 1796 829 1072
          1685 646 1200 1824 647 1600
          1376 1216 1283 486 1006 816
          478 1982 1308 724 487 1761
          2040 218 1077 813 435 1850
          1724 481 1659 652 1282 1906
          432 1217 1984 1905 483 1508
          1505 125 1175 1076 129 1603
          352 1825 905 219 1140 1797
          216 1248 353 62 131 190
          1215 726 485 906 723 1199
          1658 817 1014 1249 127 358
          589 187 651 361 251 1368
          727 437 1346 1369 351 1945
          1719 1944 431 1609 1723 1686
          823 810 1420 827 824 16
          1608 1851 1378 1449 590 1545
          903 828 1605 1607 819 832
          1983 2018 1347 1725 1016 1611
          1727 1151 1739 1612 859 1986
          1987 680 843 1144 691 1142
          675 1994 839 1990 148 1726
          491 1252 1946 137 1455 1509
          523 439 135 2046 1179 520
          136 683 9 833 1688 540
          386 1078 1689 1147 367 1456
          1799 150 841 1510 387 733
          388 1022 909 138 255 368
          1450 912 668 20 1431 1026
          254 1284 369 198 913 194
          1370 1660 256 1873 488 1451
          670 489 1909 270 2020 1735
          1475 671 1730 493 1354 672
          673 1380 220 442 1827 1353
          1201 674 731 1912 140 1511
          554 146 681 1915 1577 1853
          1408 593 836 40 1512 490
          1348 1989 39 379 1019 2047
          196 1452 1143 522 1409 1081
          1453 1454 1476 381 1254 372
          677 1474 494 525 1918 735
          1732 553 1687 1690 1141 1995
          907 2019 191 192 151 497
          1181 383 1202 1023 1875 734
          1579 1033 1913 1826 1947 1422
          1423 847 1029 1613 1371 1662
          1218 1309 736 1764 1988 1578
          502 30 2041 2045 835 1874
          1768 1914 1310 591 1513 378
          592 1852 371 594 1080 1828
          142 1640 1183 685 1427 1731
          258 1025 253 1028 1641 1691
          495 221 1203 72 393 1285
          1802 374 1985 1219 1084 71
          1021 1798 1728 2050 1642 1410
          498 1036 1042 444 260 1429
          1421 729 679 496 1729 193
          139 1766 910 1919 678 1910
          842 1250 1854 730 1996 521
          1373 1767 377 524 75 1184
          1220 737 2042 2044 860 195
          1411 555 1458 1312 1040 1251
          1736 911 1148 380 1018 77
          597 1661 732 914 1991 1424
          271 78 1664 1480 1644 1477
          1643 392 1948 1206 1372 728
          1039 1221 556 1256 1582 918
          1204 1949 1694 1020 854 224
          1031 2043 851 1765 1517 2048
          846 1428 384 1311 144 73
          1645 667 1829 1027 440 837
          441 595 834 1426 1082 1222
          1547 1313 1911 1180 838 1830
          200 1580 1992 1876 1086 1920
          1928 686 1207 152 917 1581
          395 396 1515 1030 1253 143
          1666 689 223 739 149 1646
          373 1145 397 1434 666 1516
          908 1614 1413 1457 1425 840
          915 1801 916 1733 1255 1257
          1803 70 598 1083 599 74
          921 1734 1351 1089 1430 19
          1692 1349 145 1737 1079 1615
          1350 1412 1663 259 1514 141
          225 1693 76 1997 1993 1519
          596 155 1017 272 445 1205
          682 1024 676 385 1433 500
          1695 1459 1800 1290 443 501
          1374 382 1583 919 394 684
          1150 446 1032 10 1923 1088
          1518 375 669 448 1479 1085
          391 370 376 1998 1520 1950
          492 1916 390 849 738 1917
          1286 1314 1146 147 222 1432
          1478 922 920 1831 1041 1087
          858 201 861 8 1287 845
          199 844 2021 688 2051 1877
          2052 1769 1927 852 1289 499
          1185 1647 600 1483 1878 1546
          257 850 389 848 1355 526
          1182 1855 1034 1315 687 1616
          2049 273 1035 1697 527 2053
          1460 1738 1924 447 1584 1698
          1461 1926 853 1665 1999 29
          1921 1149 1832 1375 1922 274
          924 855 1696 1291 1038 197
          1037 856 1223 923 1481 1316
          1548 1288 1925 1699 857 398
          1482 690 1879
        </DataArray>
        <DataArray type="Int32" Name="type" format="ascii" RangeMin="1" RangeMax="2">
          2 2 2 2 2 2
          2 2 2 2 2 2
          2 2 2 2 2 2
          2 2 2 2 1 2
          1 1 2 2 2 2
          1 1 2 2 2 1
          2 2 1 2 2 1
          2 2 2 1 1 2
          1 1 2 1 2 2
          1 1 2 1 2 1
          1 2 1 1 2 1
          2 2 1 1 2 2
          1 2 1 2 2 2
          1 1 1 1 1 1
          2 1 1 1 2 2
          1 2 1 2 1 1
          1 1 1 1 1 2
          2 2 1 2 2 1
          1 2 2 1 2 2
          1 2 2 2 1 1
          1 1 2 1 2 2
          1 2 1 2 2 2
          1 1 1 1 2 1
          1 2 1 2 1 2
          2 2 1 2 2 1
          1 1 2 1 2 1
          1 1 2 1 1 1
          2 2 1 1 2 1
          2 2 1 1 2 1
          1 1 2 2 1 2
          1 1 1 1 1 1
          1 1 2 1 1 1
          1 1 1 1 1 1
          2 1 1 1 1 1
          2 1 2 1 1 2
          2 1 2 1 1 2
          2 2 1 2 2 2
          1 1 1 1 1 1
          1 1 2 2 2 1
          2 1 1 1 2 2
          2 1 2 1 1 2
          1 2 1 1 1 1
          2 1 2 1 2 1
          1 2 1 1 2 2
          1 1 1 1 2 2
          2 1 1 1 2 1
          1 1 1 2 1 1
          1 2 1 2 1 2
          1 2 2 2 1 2
          2 2 1 2 1 2
          1 2 2 1 1 1
          2 1 2 2 2 1
          1 2 1 1 1 1
          2 2 2 1 1 1
          1 2 2 1 2 1
          1 1 1 2 2 2
          1 2 2 2 2 1
          1 2 2 1 2 2
          2 1 2 1 1 2
          1 1 2 1 2 1
          2 2 1 1 1 2
          2 1 2 1 1 1
          1 2 1 2 2 2
          2 2 2 1 2 1
          2 1 2 2 2 1
          1 2 1 1 2 2
          2 1 1 1 1 1
          1 2 2 2 1 2
          1 1 2 1 2 2
          1 1 1 2 1 2
          2 1 1 1 2 1
          2 1 2 1 2 2
          1 1 1 2 1 2
          2 1 2 2 1 1
          2 1 2 1 1 2
          1 2 2 2 1 2
          1 1 1 1 1 2
          2 2 1 2 2 2
          2 2 2 2 1 1
          2 2 1 1 1 2
          1 1 2 2 1 2
          1 2 2 2 2 2
          2 2 2 2 2 2
          2 2 2 2 2 2
          2 2 2 2 2 2
          2 1 2 2 2 1
          1 1 2 1 2 2
          1 2 1 2 1 1
          1 2 2 2 1 1
          1 1 2 1 2 2
          1 1 2 2 2 1
          1 1 1 1 2 1
          1 2 1 2 1 2
          1 2 2 1 2 1
          1 2 1 1 1 1
          2 2 1 1 1 2
          2 2 1 2 2 1
          2 1 1 1 2 1
          1 2 1 1 2 1
          2 1 2 2 1 2
          2 1 1 2 2 1
          2 2 1 1 1 2
          2 2 2 1 1 2
          1 2 2 1 2 1
          2 1 1 1 1 1
          1 2 1 1 1 2
          1 1 2 2 1 2
          2 2 2 1 2 2
          1 1 2 1 1 2
          2 1 1 2 2 2
          2 1 1 1 2 1
          2 1 1 2 1 2
          1 2 1 1 2 1
          1 1 2 2 1 2
          1 1 1 1 2 1
          2 1 2 1 1 1
          1 1 2 2 2 1
          2 1 1 2 1 2
          2 1 2 1 1 1
          2 1 2 1 1 1
          2 2 2 2 2 1
          1 1 1 1 1 2
          2 2 1 1 2 1
          2 1 2 1 1 1
          2 2 2 2 1 2
          2 1 1 2 1 1
          1 2 1 1 2 1
          1 1 1 2 2 1
          1 1 2 1 2 1
          1 1 1 1 2 1
          1 2 2 2 1 2
          1 1 1 1 1 1
          1 2 1 1 1 1
          1 2 1 2 1 1
          1 1 1 2 1 2
          1 1 2 2 2 2
          2 2 1 1 1 1
          1 1 2 1 1 1
          1 2 2 1 1 1
          2 1 1 1 1 2
          1 2 2 1 1 1
          1 1 1 2 1 2
          1 2 1 1 2 1
          1 2 1 1 1 2
          1 2 1 1 2 2
          2 2 1 1 2 2
          1 2 1 1 1 1
          2 1 1 1 2 1
          1 1 2 2 2 2
          2 2 2 1 2 1
          1 2 1 1 1 1
          2 1 2 2 1 1
          1 2 2 2 1 1
          1 2 2 2 1 1
          1 1 1 2 2 1
          1 1 1 1 1 1
          1 2 2 2 1 1
          2 2 1 1 1 1
          2 1 2 1 1 2
          2 1 2 1 2 1
          2 1 2 1 2 1
          2 1 1 1 2 2
          2 1 2 1 2 2
          2 1 1 1 1 1
          2 1 2 1 2 1
          2 1 2 1 1 2
          2 2 2 2 2 1
          1 1 2 2 2 1
          2 2 2 2 1 1
          2 1 2 2 2 1
          2 1 2 1 1 2
          1 2 2 2 2 2
          1 1 2 1 2 1
          2 2 1 2 1 2
          2 2 2 2 2 2
          2 2 2 2 2 2
          2 2 2 2 2 2
          2 2 1 1 2 1
          2 1 1 2 1 2
          2 2 1 1 1 2
          2 2 2 1 2 1
          2 2 2 1 1 1
          2 2 2 2 1 1
          2 1 1 1 1 1
          2 2 2 1 1 1
          1 1 1 1 1 2
          1 2 2 2 2 2
          1 2 1 1 2 2
          1 2 2 2 1 2
          2 2 2 1 1 1
          2 1 1 1 2 1
          2 2 1 2 2 1
          2 1 1 2 1 2
          2 2 1 1 1 1
          2 1 1 1 1 1
          2 1 1 2 1 2
          2 1 2 1 2 2
          2 1 1 1 1 1
          1 2 1 1 1 1
          1 1 1 1 2 1
          1 2 1 2 1 1
          2 2 1 1 2 1
          2 1 1 1 2 2
          2 1 1 2 1 2
          1 2 1 2 1 2
          2 1 1 2 2 1
          2 2 1 1 1 1
          1 1 2 2 2 2
          2 2 2 1 1 1
          2 2 1 1 2 1
          2 1 2 2 1 1
          2 2 1 2 2 1
          2 2 2 2 2 2
          2 2 1 1 1 2
          1 1 1 2 1 1
          2 1 1 1 2 2
          1 1 2 1 1 1
          2 2 1 1 2 1
          1 1 2 1 2 2
          2 2 1 1 2 1
          1 2 2 1 2 2
          1 2 1 2 2 1
          2 1 2 2 1 2
          1 1 1 1 1 2
          2 2 1 2 2 2
          1 1 1 2 1 1
          1 2 2 1 2 2
          2 2 2 2 2 1
          1 1 1 1 1 2
          2 2 1 2 1 1
          2 2 2 2 1 2
          2 1 1 1 1 2
          1 1 1 2 2 1
          1 2 1 1 2 2
          2 1 1 1 2 2
          1 2 1 1 1 1
          2 1 1 2 1 2
          2 1 2 2 1 2
          1 1 2 2 1 1
          1 2 1 1 2 2
          2 1 1 1 2 2
          1 1 2 1 2 1
          1 1 1 1 1 1
          2 2 2 1 2 2
          1 1 2 2 2 1
          1 1 1 1 2 1
          2 1 1 2 2 1
          2 2 2 2 2 1
          2 2 2 1 1 2
          1 2 2 2 2 2
          2 1 1 2 2 2
          2 2 2 2 2 2
          2 2 2 2 2 2
          2 2 2 2 2 2
          1 1 1 2 1 1
          1 1 2 2 1 1
          2 2 1 2 1 1
          2 1 1 2 2 1
          2 2 2 1 2 1
          2 2 1 2 2 2
          1 1 2 1 2 2
          2 1 2 1 1 1
          1 2 2 1 1 1
          2 1 2 1 1 2
          2 2 2 1 2 2
          2 2 1 1 1 2
          1 2 1 2 2 1
          2 2 2 2 1 2
          1 1 2 1 1 1
          1 2 1 2 2 2
          1 1 2 1 1 1
          1 1 2 2 1 2
          2 2 1 1 2 1
          2 2 1 1 2 2
          1 1 1 1 2 1
          1 2 1 2 1 1
          1 2 2 1 1 2
          2 2 2 2 1 2
          1 1 1 1 2 1
          1 1 2 2 2 1
          1 2 1 1 1 2
          1 2 2 1 1 1
          2 1 1 2 2 2
          2 2 2 2 1 1
          1 1 1 1 2 1
          2 2 2 1 1 1
          2 2 2 2 1 1
          1 2 2 1 2 2
          2 1 2 1 2 1
          2 1 1 2 2 2
          2 1 2 1 2 1
          1 1 2 1 1 1
          1 1 2 2 2 1
          1 2 1 1 2 1
          2 1 2 2 2 1
          1 2 1 1 2 2
          1 1 2 2 1 2
          1 2 1 1 1 1
          2 1 2 1 1 1
          1 1 1 2 2 1
          2 2 2 1 1 2
          2 2 2 1 2 1
          1 2 1 2 1 2
          1 1 2 2 1 1
          2 1 2 1 2 1
          1 1 2 1 1 2
          2 2 1 2 1 1
          2 2 1 2 1 2
          2 2 1 1 2 1
          2 2 2 2 2 1
          1 2 1 1 2 2
          1 2 1 2 1 1
          2 1 1 1 1 1
          1 2 1 1 2 1
          1 1 2 2 1 2
          1 1 2 2 1 2
          1 1 1 2 2 1
          1 1 2 1 1 1
          2 2 2 2 2 1
          1 1 2 2 1 1
          1 2 1 1 2 2
          2 1 2 1 2 1
          1 2 2 1 2 1
          2 2 2 2 1 1
          1 2 2 2 1 2
          1 1 2 2 1 2
          2 1 1 1 2 1
          2 1 2 1 1 2
          1 2 1 2 2 1
          2 1 2 2 1 1
          1 1 1 2 1 2
          2 2 2 2 2 1
          1 2 2 1 2 2
          2 1 2 1 1 2
          1 2 2 1 1 1
          1 2 2 2 2 1
          2 2 1 1 2 1
          1 2 1 2 2 1
          2 2 1 1 2 1
          2 1 2 1 2 2
          2 2 1
        </DataArray>
        <DataArray type="Float64" Name="diameter" format="ascii" RangeMin="1e-08" RangeMax="1.3738576072e-06">
          9.1219032692e-07 9.5328244387e-07 9.3203877987e-07 9.4743601232e-07 9.5455095338e-07 8.8776459001e-07
          9.1303606198e-07 8.942055968e-07 9.2309229218e-07 9.1197544256e-07 8.6855417796e-07 9.8810546662e-07
          9.5026869763e-07 9.5788368724e-07 9.6256370903e-07 9.4992916463e-07 9.6416048682e-07 9.4631022935e-07
          9.6225345958e-07 8.759635279e-07 9.1124052501e-07 9.9077693957e-07 1.1763643436e-06 1.2290574747e-06
          1.0603487414e-06 1.1637549497e-06 1.0622316768e-06 1.0620267325e-06 1.0553509832e-06 1.0465626409e-06
          1.2871038294e-06 1.1527943213e-06 1.0813547707e-06 1.2155632898e-06 1.0864549806e-06 1.3502187164e-06
          1.1629738519e-06 1.1313318441e-06 1.143863224e-06 1.0399464336e-06 1.0276789981e-06 1.253498876e-06
          1.1000352766e-06 1.0509111239e-06 1.1223846978e-06 1.2893929732e-06 1.2108439695e-06 1.1071294922e-06
          1.0927036687e-06 1.1931174059e-06 1.0292308388e-06 1.1709336224e-06 1.0802624513e-06 9.0096147707e-07
          1.0930570694e-06 1.1166504807e-06 1.0456623552e-06 1.1454691648e-06 1.0354478021e-06 1.1752935297e-06
          1.0681297672e-06 1.0353116844e-06 1.2599701409e-06 1.335762117e-06 9.6661349559e-07 1.3529674426e-06
          1.025693945e-06 8.7266000886e-07 1.2734456865e-06 1.2537889473e-06 1.0677131819e-06 1.0798836234e-06
          1.3137414942e-06 1.017762824e-06 1.3387648095e-06 1.0566321095e-06 1.1124683313e-06 1.0390465723e-06
          1.3644037448e-06 1.0496824257e-06 1.2182343026e-06 1.3063140818e-06 1.3018043308e-06 1.1093930762e-06
          8.8487615027e-07 1.2201803322e-06 1.0462741544e-06 1.1932763561e-06 1.0999870615e-06 1.0391884861e-06
          1.0987571153e-06 9.1080980482e-07 1.2675317261e-06 1.0807668704e-06 1.0718291356e-06 1.1365892581e-06
          1.0720161639e-06 1.0946355089e-06 1.16037644e-06 1.2091805472e-06 1.1415752073e-06 9.6537119847e-07
          1.0955885169e-06 1.119790151e-06 1.2969451856e-06 1.0456972255e-06 9.5895115504e-07 1.1773126538e-06
          1.1182053835e-06 1.0202999567e-06 1.1166201567e-06 1.3124801308e-06 1.119131145e-06 1.1837968705e-06
          1.1630954357e-06 1.0557939906e-06 1.0451378935e-06 8.3902964374e-07 1.2851992222e-06 1.2751925229e-06
          1.0498712456e-06 1.1450022728e-06 1.009556108e-06 1.1296103934e-06 1.0206352861e-06 8.797284874e-07
          1.1956928736e-06 1e-08 1.2176078051e-06 9.8602083417e-07 9.8478114578e-07 1.094335635e-06
          1.1050253904e-06 1.0323430343e-06 1.1885327243e-06 1.1679866621e-06 1.1662562622e-06 1.1393979279e-06
          1.1937937635e-06 1.0208949103e-06 1.1376818608e-06 9.8829495723e-07 1.1646580233e-06 1.1128664255e-06
          9.4762511825e-07 1.0029542692e-06 1.2046646278e-06 1.1701281817e-06 1.1197149497e-06 1.2020269737e-06
          1.3382439258e-06 1.168229787e-06 1.0157950998e-06 1.2778368522e-06 9.6857566146e-07 1.1100377426e-06
          1.1633042259e-06 1.1450544806e-06 9.6885711282e-07 1.1239023577e-06 1.127871285e-06 1.2495202301e-06
          1.1621736474e-06 1.0891988601e-06 1.1041290859e-06 1.272874067e-06 9.0369996169e-07 1.0756116492e-06
          1.0386253371e-06 1.035700214e-06 1.0971230035e-06 1.1323226746e-06 1.0926773976e-06 1.3085961207e-06
          1.0736518363e-06 1.2570889519e-06 9.5868337842e-07 1.0508721137e-06 1.2010215717e-06 9.5097455901e-07
          1.0862207827e-06 1.2358098412e-06 1.3271907143e-06 1.1198747671e-06 1.2395426216e-06 1.0811492404e-06
          1.1822400627e-06 1.2683225254e-06 9.6486091562e-07 1.3579135512e-06 1.1179419658e-06 1.2775665494e-06
          1.154805131e-06 1.0778538597e-06 1.1888647976e-06 1.1783502818e-06 1.2928504574e-06 1.1764120846e-06
          1.0461342032e-06 1.2949793277e-06 1.3055366612e-06 1.1441007214e-06 1.2979398779e-06 1.2477943966e-06
          1.1139002049e-06 1.1898296244e-06 1.0281518034e-06 1.2718615775e-06 1.0992883804e-06 1.0673080273e-06
          9.8634225083e-07 1.2439957089e-06 1.013060355e-06 1.2139829319e-06 1.1384306123e-06 1.1195574204e-06
          8.8183924666e-07 9.9067817902e-07 1.2505631347e-06 1.0176349266e-06 1.0757144491e-06 9.5272136377e-07
          1.1436487622e-06 1.1419459303e-06 1.1178293045e-06 1.1243189761e-06 1.3193967627e-06 1.1611712004e-06
          1.2927253339e-06 1.2185823051e-06 1.0783770966e-06 8.9108928835e-07 9.9090475622e-07 1.0944599728e-06
          1.1224280503e-06 1.0785428073e-06 1.1751023235e-06 1.2128192682e-06 8.680385939e-07 9.5362096702e-07
          8.4447048803e-07 1.2689457968e-06 1.1574800829e-06 1.221527876e-06 1.3519733581e-06 1.0145463687e-06
          1.2064416198e-06 1.0993014272e-06 1.2794099868e-06 1.1359502849e-06 1.0298812176e-06 1.3156446608e-06
          9.8672055092e-07 1.0687966013e-06 1.065583953e-06 1.2292748318e-06 1.0776214852e-06 1.1813114382e-06
          1.2867856893e-06 1.0442877462e-06 1.0967772403e-06 1.2336661796e-06 8.8864648854e-07 9.8257310127e-07
          1.2992902254e-06 1.1412032895e-06 1.1306730429e-06 1.1282302253e-06 8.3469945101e-07 9.7491929089e-07
          1.0234348126e-06 1.1153307305e-06 1.189275938e-06 1.2144598764e-06 9.8582810281e-07 1.1514365046e-06
          1.3354846821e-06 1.2951425315e-06 1.3443496088e-06 1.1264723749e-06 1.1617145232e-06 1.2810731038e-06
          1.0126014317e-06 9.7523731628e-07 1.1900800901e-06 1.014243907e-06 1.2319850388e-06 1.0146692761e-06
          1.1225165273e-06 9.6169686629e-07 1.0160381551e-06 9.9277993976e-07 1.3294232437e-06 9.9306552776e-07
          9.2514669323e-07 9.6507440255e-07 1.1030138072e-06 9.3541034493e-07 1.1414260046e-06 1.0672887673e-06
          1.2354717637e-06 9.549612505e-07 8.8495115627e-07 1.0880481086e-06 1.1096967906e-06 1.2550757521e-06
          9.0543297642e-07 1.1545477649e-06 1.0262475189e-06 8.7294881692e-07 9.1293642268e-07 1.246262748e-06
          1.064734593e-06 1.0068196144e-06 1.3150361296e-06 1.1731781844e-06 1.0717779177e-06 1.3600332779e-06
          9.3031670244e-07 8.5613289656e-07 9.6041732021e-07 1.1637612227e-06 1.2521225208e-06 1.0855627719e-06
          1.0680420992e-06 8.9472105181e-07 1.035147357e-06 1.198083846e-06 9.9343136557e-07 1.110302942e-06
          1.2356818522e-06 1.1484452681e-06 1.260679426e-06 1.0783942938e-06 1.1242951782e-06 8.7915210336e-07
          1.2125632363e-06 1.0192308025e-06 1.1980877205e-06 1.0524403212e-06 1.0495439445e-06 1.1274857191e-06
          1.119442728e-06 1.1370643078e-06 9.3407959857e-07 1.1392341164e-06 1.0392366978e-06 1.0953524193e-06
          1.0697827274e-06 1.1674277058e-06 9.387657373e-07 1.0614566016e-06 1.2943819151e-06 1.0077135585e-06
          1.2856235567e-06 1.1934188897e-06 8.6686814088e-07 1.061079753e-06 1.1382207746e-06 1.1566241001e-06
          1.1314325319e-06 9.4617488416e-07 1.3121552023e-06 1.2935090314e-06 1.1032665454e-06 1.0283499307e-06
          9.9857303299e-07 1.0997655458e-06 8.4229119137e-07 1.1464082424e-06 1.1117928092e-06 1.32531808e-06
          1.16606409e-06 8.8216375464e-07 1.2743406157e-06 9.9831821093e-07 1.1121817226e-06 9.6818246831e-07
          9.8373373514e-07 9.1791615948e-07 1.1149249323e-06 1.1439938305e-06 1.0860550406e-06 1.1676405652e-06
          1.0675920394e-06 1.1575529587e-06 9.3305971181e-07 1.056405796e-06 1.0527927149e-06 1.1679737217e-06
          1.2070852624e-06 1.0566684867e-06 1.2173343309e-06 1.3675548612e-06 9.6419674609e-07 9.1119746436e-07
          1.0748508e-06 1.1440808191e-06 1.1510926615e-06 1.3472237841e-06 1.1093741804e-06 1.2162639745e-06
          1.3017814443e-06 9.9056329555e-07 1.1685189413e-06 1.0919449081e-06 1.1234637198e-06 1.0469303997e-06
          1.3640879774e-06 1.3666536782e-06 1.0970422933e-06 1.1582429637e-06 1.0109622146e-06 9.3806237443e-07
          1.2411671771e-06 1.2328779755e-06 1.1142676194e-06 1.0463290972e-06 1.2380945637e-06 1.0585658783e-06
          1.0116587974e-06 1.081757223e-06 1.3107262472e-06 1.3668445101e-06 1.0571427373e-06 1.1058907534e-06
          1.1142824288e-06 1.2893201888e-06 1.0148009253e-06 1.154332528e-06 1.0763757985e-06 1.0233399825e-06
          1.1708658094e-06 1.1718988204e-06 1.0556995362e-06 1.0592186665e-06 1.0234495053e-06 9.1662125481e-07
          1.0037679122e-06 1.1390901867e-06 1.1073741997e-06 1.0800189213e-06 1.0783574062e-06 1.1386647481e-06
          1.0939933601e-06 1.1218645768e-06 8.7094750676e-07 1.2817987905e-06 1.2982054052e-06 1.0550847252e-06
          1.2037979969e-06 8.499495563e-07 1.1358546442e-06 1.0937601984e-06 1.2834520759e-06 1.1464653589e-06
          1.1104366069e-06 1.146582715e-06 1.1487278367e-06 1.3526524207e-06 1.1844523229e-06 9.6068346485e-07
          1.0382930653e-06 9.7900257856e-07 1.0730701521e-06 9.7105114187e-07 9.3931282352e-07 8.9004448142e-07
          9.6904226576e-07 9.4719859714e-07 1.010712576e-06 1.1595812071e-06 1.2902791045e-06 1.328360517e-06
          9.4376251314e-07 1.1011587654e-06 1.1326185036e-06 1.1875570796e-06 1.1200237756e-06 8.5729240938e-07
          1.1209263345e-06 1.1174458684e-06 1.141794832e-06 9.7765867171e-07 1.1413126412e-06 1.0658093285e-06
          1.0771180571e-06 9.4407408874e-07 9.1963071021e-07 9.1906790378e-07 9.3850695822e-07 9.41399282e-07
          9.5076783578e-07 8.2675977335e-07 8.4017979341e-07 8.8501573443e-07 9.4469433027e-07 9.1095619714e-07
          9.3012278033e-07 9.9783517708e-07 9.2963247757e-07 9.2537343608e-07 9.6234821448e-07 9.338295538e-07