<?xml version="1.0"?>
<VTKFile type="UnstructuredGrid" version="0.1" byte_order="LittleEndian" header_type="UInt32" compressor="vtkZLibDataCompressor">
  <UnstructuredGrid>
    <Piece NumberOfPoints="219" NumberOfCells="219">
      <PointData>
        <DataArray type="Int32" Name="id" format="ascii" RangeMin="1" RangeMax="219">
          84 82 83 95 98 101
          102 85 174 44 175 4
          186 5 113 13 164 163
          87 14 15 107 47 48
          180 25 24 109 52 93
          108 54 55 110 60 61
          32 57 120 183 34 97
          99 1 2 41 177 46
          42 176 86 162 178 49
          50 51 193 22 53 96
          165 181 56 195 188 182
          59 35 185 45 103 190
          11 12 105 106 91 89
          90 179 88 21 94 119
          167 100 31 33 184 3
          115 196 192 191 104 187
          92 23 166 194 111 58
          112 114 189 43 116 118
          117 121 124 122 123 135
          138 141 142 125 197 64
          198 9 209 10 153 18
          170 169 127 19 20 147
          67 68 203 30 29 149
          72 133 148 74 75 150
          80 81 37 77 160 206
          39 137 139 6 7 200
          66 62 199 126 168 201
          69 70 71 216 27 73
          136 171 204 76 218 211
          205 79 40 208 65 143
          213 16 17 145 146 131
          129 130 202 128 26 134
          159 173 140 36 38 207
          8 155 219 215 214 144
          210 132 28 172 217 151
          78 152 154 212 63 156
          158 157 161
        </DataArray>
        <DataArray type="Int32" Name="type" format="ascii" RangeMin="1" RangeMax="2">
          2 2 2 2 2 2
          2 2 1 1 1 1
          1 1 2 1 1 1
          2 1 1 2 1 1
          1 1 1 2 1 2
          2 1 1 2 1 1
          1 1 2 1 1 2
          2 1 1 2 1 1
          1 1 2 1 1 1
          1 1 1 1 1 2
          1 1 1 1 1 1
          1 1 1 1 2 1
          1 1 2 2 2 2
          2 1 2 1 2 2
          1 2 1 1 1 1
          2 1 1 1 2 1
          2 1 1 1 2 1
          2 2 1 1 2 2
          2 2 2 2 2 2
          2 2 2 2 1 1
          1 1 1 1 2 1
          1 1 2 1 1 2
          1 1 1 1 1 2
          1 2 2 1 1 2
          1 1 1 1 2 1
          1 2 2 1 1 1
          1 1 1 2 1 1
          1 1 1 1 1 1
          2 1 1 1 1 1
          1 1 1 1 1 2
          1 1 1 2 2 2
          2 2 1 2 1 2
          2 1 2 1 1 1
          1 2 1 1 1 2
          1 2 1 1 1 2
          1 2 2 1 1 2
          2 2 2
        </DataArray>
        <DataArray type="Float64" Name="diameter" format="ascii" RangeMin="1e-08" RangeMax="1.4433029027e-06">
          9.678657077e-07 9.8860650279e-07 9.8233943758e-07 9.6038892154e-07 9.6289683937e-07 9.9846211777e-07
          9.8587442017e-07 1.0239346381e-06 1.1953562791e-06 1.1279265015e-06 1.2594567329e-06 1.1831760108e-06
          1.1342963394e-06 1.1716204156e-06 1.0356681015e-06 1.1409229099e-06 1.2663365994e-06 1.3033970968e-06
          1.0699881115e-06 1.2179156775e-06 1.1138608241e-06 1.0185954383e-06 1.2424874401e-06 1.4142701023e-06
          1.1671817061e-06 1.238089738e-06 1.1439433418e-06 1.0438356965e-06 1.3906510216e-06 1.0246633056e-06
          1.0419832648e-06 1.1573923718e-06 1.440536237e-06 9.4057032907e-07 1.1969828078e-06 1.2263430772e-06
          1.4346486489e-06 1.4047263647e-06 1.0643226751e-06 1.2429077632e-06 1.1467330189e-06 1.0340395037e-06
          9.7990434319e-07 1.1660077813e-06 1.4433029027e-06 1e-08 1.1715367941e-06 1.2292230783e-06
          1.1681262223e-06 1.180712934e-06 9.5850015835e-07 1.2979969297e-06 1.0871828063e-06 1.4261476577e-06
          1.3985320884e-06 1.1173049553e-06 1.2687609125e-06 1.1162654943e-06 1.1931185305e-06 9.6358028585e-07
          1.2263383046e-06 1.1457346787e-06 1.4147132266e-06 1.2927993667e-06 1.1348045211e-06 1.2005926304e-06
          1.184942075e-06 1.4418909474e-06 1.1446698869e-06 1.2190469427e-06 1.0138658038e-06 1.1773441163e-06
          1.2090517957e-06 1.1521969304e-06 9.8403804306e-07 8.7384008405e-07 9.3265652948e-07 1.0772467209e-06
          1.0740435101e-06 1.2738803201e-06 9.4020291543e-07 1.2490956291e-06 9.2273851753e-07 1.0276948301e-06
          1.2418991542e-06 9.6538159196e-07 1.2353729559e-06 1.4404544098e-06 1.2361744967e-06 1.1467258709e-06
          1.0128140911e-06 1.2727802301e-06 1.2001538475e-06 1.1701206488e-06 9.6295444713e-07 1.2777985595e-06
          1.0367109127e-06 1.1387839049e-06 1.2459838195e-06 1.2372543865e-06 9.730034922e-07 1.1342219157e-06
          8.8492866916e-07 9.3955726294e-07 1.1900618876e-06 1.1460289051e-06 1.0032564966e-06 9.1507306074e-07
          1.0101034413e-06 9.8261815439e-07 9.678657077e-07 9.8860650279e-07 9.8233943758e-07 9.6038892154e-07
          9.6289683937e-07 9.9846211777e-07 9.8587442017e-07 1.0239346381e-06 1.1953562678e-06 1.1279265121e-06
          1.2594567448e-06 1.1831771614e-06 1.1341504276e-06 1.1716204046e-06 1.0356681015e-06 1.1409228993e-06
          1.2666335499e-06 1.3033970968e-06 1.0699881115e-06 1.2179492117e-06 1.1138708328e-06 1.0185954383e-06
          1.2424874401e-06 1.4142701022e-06 1.1671817061e-06 1.238089738e-06 1.143943347e-06 1.0438356965e-06
          1.3906510216e-06 1.0246633056e-06 1.0419832648e-06 1.1573923609e-06 1.4405362436e-06 9.4057032907e-07
          1.1969737072e-06 1.2263430772e-06 1.4346486489e-06 1.4047263647e-06 1.0643226751e-06 1.2429077632e-06
          1.1467243003e-06 1.0340395037e-06 9.7990434319e-07 1.1660077704e-06 1.4432874416e-06 1.1715367832e-06
          1.2292230668e-06 1.1681262113e-06 1.180864849e-06 9.5850015835e-07 1.2979969176e-06 1.0871828063e-06
          1.4261476444e-06 1.3985705957e-06 1.117314995e-06 1.2687609078e-06 1.1162654943e-06 1.1931185305e-06
          9.6358028585e-07 1.2263383046e-06 1.145734668e-06 1.4147132266e-06 1.2927993667e-06 1.1346488439e-06
          1.2005926304e-06 1.184942075e-06 1.4418909474e-06 1.1446698828e-06 1.2190481282e-06 1.0138658038e-06
          1.1773441274e-06 1.2090517957e-06 1.1521969304e-06 9.8403804306e-07 8.7384008405e-07 9.3265652948e-07
          1.0772467209e-06 1.0740435101e-06 1.2738917667e-06 9.4020291543e-07 1.2490956291e-06 9.2273851753e-07
          1.0276948301e-06 1.2418991542e-06 9.6538159196e-07 1.2353729559e-06 1.4404544098e-06 1.2361650981e-06
          1.1467258816e-06 1.0128140911e-06 1.2726095551e-06 1.2003168561e-06 1.1701206488e-06 9.6295444713e-07
          1.2777985653e-06 1.0367109127e-06 1.1387838942e-06 1.2459838195e-06 1.2372543864e-06 9.730034922e-07
          1.1342219157e-06 8.8492866916e-07 9.3955726294e-07 1.1900618764e-06 1.1460166286e-06 1.0032564966e-06
          9.1507306074e-07 1.0101034413e-06 9.8261815439e-07
        </DataArray>
      </PointData>
      <CellData>
      </CellData>
      <Points>
        <DataArray type="Float32" Name="Points" NumberOfComponents="3" format="ascii" RangeMin="5.71902047e-06" RangeMax="0.00010176187209">
          2.5684879802e-05 3.8451112232e-06 4.8865564395e-07 3.8165617298e-06 4.2301812755e-06 4.9660656032e-07
          1.4673242731e-05 4.866137715e-06 4.9668841484e-07 2.3601267458e-05 2.5568147976e-05 4.8291542498e-07
          5.8334412643e-06 3.5321882024e-05 4.8239354555e-07 3.3642361814e-05 3.6139401345e-05 4.9944225111e-07
          3.5678011045e-05 3.662266181e-06 6.946242479e-07 3.4951561247e-05 4.364968845e-06 5.1694706826e-07
          5.2469777074e-06 4.7764060582e-06 7.1886842079e-07 2.4289996873e-05 4.8315114327e-06 8.6878458205e-07
          2.5695291697e-05 4.674264801e-06 7.61640365e-07 3.4718563256e-05 4.805667686e-06 7.0718994039e-07
          3.6139190343e-05 4.6198142627e-06 8.2293803416e-07 4.5885339205e-05 5.3654325711e-06 7.072217727e-07
          4.9556256272e-06 6.0287343331e-06 8.8520187091e-07 2.5065226509e-05 1.4488739907e-05 5.4164144103e-07
          3.3925229218e-05 1.4177292542e-05 6.9374885925e-07 1.4695398022e-05 1.4685476344e-05 6.096891525e-07
          2.3615844839e-05 1.4854236724e-05 6.8623597826e-07 3.503143671e-05 1.4649439436e-05 7.2032065646e-07
          4.4162763515e-05 1.4580738025e-05 6.7724261044e-07 4.5395954658e-05 1.4817439478e-05 5.1539734613e-07
          4.8665151553e-06 1.5060372789e-05 7.5203598726e-07 1.5574556528e-05 1.5756189896e-05 9.3604876383e-07
          1.5443587472e-05 2.3874925319e-05 6.9725052754e-07 4.4274551328e-05 2.3883560061e-05 5.8680689108e-07
          3.5081589886e-05 2.4352915716e-05 6.8499400641e-07 2.5477282179e-05 2.4575163479e-05 5.2783599358e-07
          5.0346875469e-06 2.5011770049e-05 6.4955685275e-07 1.5072294445e-05 2.5420758902e-05 5.1430947678e-07
          3.5620316339e-05 2.5339661079e-05 5.4511082226e-07 2.4081502488e-05 2.5512539651e-05 6.9647876444e-07
          3.4494860301e-05 2.5697863748e-05 7.8169222206e-07 4.4213986257e-05 2.5622350222e-05 9.7167992408e-07
          3.4874210542e-05 3.4444885387e-05 7.2029860121e-07 4.4151784095e-05 3.4286484151e-05 7.3525126254e-07
          1.4411411939e-05 3.4980297642e-05 6.875999361e-07 4.7045427891e-06 3.534593634e-05 6.656257483e-07
          1.5600506231e-05 3.5061941162e-05 5.3373850051e-07 2.5310508136e-05 3.5226028558e-05 7.5347986694e-07
          3.4672379115e-05 3.5359949834e-05 6.8966909339e-07 4.445617742e-05 3.5625704186e-05 5.2084362778e-07
          1.4884154552e-05 3.6102112063e-05 9.6621192824e-07 4.4250673454e-06 4.8470365073e-06 1.2804584912e-06
          1.5392726709e-05 4.687746241e-06 1.4040974747e-06 6.0000002122e-06 4.9999998737e-06 9.9999999748e-07
          4.4966986025e-05 5.3740927797e-06 1.2316966149e-06 4.5005035645e-05 5.0536918934e-06 1.2506282019e-06
          5.2903628784e-06 5.6393528212e-06 1.400546239e-06 3.3985790651e-05 5.9408007473e-06 1.0296630535e-06
          4.4441734644e-05 5.6310764194e-06 1.3102317098e-06 2.4413648134e-05 1.4422566892e-05 1.4702037561e-06
          5.0150665629e-06 1.4886890312e-05 1.3422674101e-06 2.5198931326e-05 1.5517503925e-05 1.3930658724e-06
          3.5501045204e-05 1.5613282812e-05 1.3560419347e-06 4.5093682274e-05 1.5587880625e-05 1.0790727174e-06
          2.5593044484e-05 2.3962225896e-05 1.3414309024e-06 1.4762104001e-05 2.4749990189e-05 1.2104688949e-06
          1.5221290596e-05 2.4679051421e-05 1.4071603118e-06 3.3969765354e-05 2.4729406505e-05 1.1936707551e-06
          4.4977634388e-05 2.4631885026e-05 1.0945063877e-06 2.538040826e-05 2.5462555641e-05 1.0449142565e-06
          4.5423679694e-05 2.5782926969e-05 1.3443133184e-06 1.4553861547e-05 3.4913715353e-05 1.3546061837e-06
          3.609432315e-05 3.4515283915e-05 1.3469593796e-06 4.5049913751e-05 3.457753337e-05 1.3075974721e-06
          2.4935050533e-05 3.5170527553e-05 1.4228319287e-06 4.5416010835e-05 3.5343939089e-05 1.4384031601e-06
          4.4198801334e-05 3.9205433495e-06 1.583335461e-06 3.5252076486e-05 4.9357850003e-06 1.8888913473e-06
          4.3397212721e-05 4.7667299441e-06 1.5405817066e-06 2.5530185667e-05 5.7175725487e-06 1.6839239834e-06
          5.0611329243e-06 1.4331031707e-05 1.9732824512e-06 1.4123094843e-05 1.4452554751e-05 1.5898208403e-06
          2.5557623303e-05 1.4418917999e-05 1.5944715415e-06 3.5660606954e-05 1.4400604414e-05 1.5688377744e-06
          4.5200809836e-05 1.4256289433e-05 1.5119001091e-06 1.543594226e-05 1.4694328456e-05 1.5239912727e-06
          3.3880765841e-05 1.4841160009e-05 1.7355746422e-06 4.427967724e-05 1.4758335965e-05 1.5295282765e-06
          4.2674018914e-06 1.5270828953e-05 1.6530276525e-06 4.4475423238e-06 2.4505787223e-05 1.6386263724e-06
          5.62689047e-06 2.4714639949e-05 1.5435635987e-06 4.7523617468e-06 3.3567757782e-05 1.8894201048e-06
          5.9105600485e-06 3.435031249e-05 1.8172017917e-06 2.5625005946e-05 3.4431388485e-05 1.5676009752e-06
          4.783485565e-06 3.466227281e-05 1.6922056147e-06 2.4571572794e-05 3.4907759982e-05 1.9687063286e-06
          3.4402848542e-05 3.5645505704e-05 1.7265654151e-06 2.4509885407e-05 4.9644659157e-06 2.2639280814e-06
          2.6198455089e-05 5.2845034588e-06 2.0342133666e-06 1.6109719581e-05 6.0598599703e-06 2.3878953925e-06
          4.6025976189e-05 1.5197900211e-05 2.0312395463e-06 5.7903230299e-06 1.556598545e-05 2.0499537641e-06
          1.501868519e-05 1.5568599338e-05 2.1207674763e-06 3.5497028875e-05 2.4444010705e-05 2.0068027879e-06
          4.4531945605e-05 2.4825467335e-05 2.0926058824e-06 2.5363635359e-05 2.5163946702e-05 2.1133935206e-06
          4.778712082e-06 2.5773239031e-05 2.1136361283e-06 1.4780614038e-05 2.569337812e-05 2.2964434265e-06
          3.4955031879e-05 3.4427655919e-05 2.0522943487e-06 1.5599256585e-05 3.504106644e-05 2.3594952836e-06
          4.5128395868e-05 3.5886492697e-05 2.3793011223e-06 1.5295614503e-05 4.3925147111e-06 2.749721034e-06
          5.2409964155e-06 4.782589258e-06 2.5227980132e-06 1.5000101484e-05 5.1084452934e-06 2.6112927571e-06
          4.6110699259e-06 1.4436424863e-05 2.7325941119e-06 1.4814199858e-05 2.4799428502e-05 2.8042650229e-06
          4.2347846829e-06 2.500395567e-05 2.984744242e-06 2.5581130103e-05 3.4258748201e-05 2.5334738893e-06
          7.5684882177e-05 3.8451112232e-06 4.8865564395e-07 5.3816562286e-05 4.2301812755e-06 4.9660656032e-07
          6.4673244196e-05 4.866137715e-06 4.9668841484e-07 7.3601266195e-05 2.5568147976e-05 4.8291542498e-07
          5.5833439546e-05 3.5321882024e-05 4.8239354555e-07 8.3642364189e-05 3.6139401345e-05 4.9944225111e-07
          8.5678009782e-05 3.662266181e-06 6.946242479e-07 8.4951556346e-05 4.364968845e-06 5.1694706826e-07
          5.5246979173e-05 4.7764060582e-06 7.1886842079e-07 7.428999379e-05 4.8315114327e-06 8.6878458205e-07
          7.5695294072e-05 4.674264801e-06 7.61640365e-07 8.4718565631e-05 4.805667686e-06 7.0718994039e-07
          8.6139189079e-05 4.6198142627e-06 8.2293803416e-07 9.588534158e-05 5.3654325711e-06 7.072217727e-07
          5.4955624364e-05 6.0287343331e-06 8.8520187091e-07 7.5065225246e-05 1.4488739907e-05 5.4164144103e-07
          8.3925231593e-05 1.4177292542e-05 6.9374885925e-07 6.4695399487e-05 1.4685476344e-05 6.096891525e-07
          7.3615847214e-05 1.4854236724e-05 6.8623597826e-07 8.5031439085e-05 1.4649439436e-05 7.2032037224e-07
          9.416276589e-05 1.4580738025e-05 6.7724261044e-07 9.5395953394e-05 1.4817439478e-05 5.1539734613e-07
          5.4866515711e-05 1.5060372789e-05 7.5203598726e-07 6.5574553446e-05 1.5756189896e-05 9.3604876383e-07
          6.5443586209e-05 2.3874925319e-05 6.9725052754e-07 9.4274553703e-05 2.3883560061e-05 5.8680689108e-07
          8.508159226e-05 2.4352915716e-05 6.8499400641e-07 7.5477284554e-05 2.4575163479e-05 5.2783599358e-07
          5.5034688557e-05 2.5011770049e-05 6.4955685275e-07 6.5072294092e-05 2.5420758902e-05 5.1430947678e-07
          8.5620318714e-05 2.5339661079e-05 5.4511082226e-07 7.4081501225e-05 2.5512539651e-05 6.9647876444e-07
          8.4494859038e-05 2.5697863748e-05 7.8169222206e-07 9.4213988632e-05 2.5622350222e-05 9.7167992408e-07
          8.4874212916e-05 3.4444885387e-05 7.2029860121e-07 9.415178647e-05 3.4286484151e-05 7.3525126254e-07
          6.4411411586e-05 3.4980297642e-05 6.875999361e-07 5.4704541981e-05 3.534593634e-05 6.656257483e-07
          6.5600506787e-05 3.5061941162e-05 5.3373850051e-07 7.5310505053e-05 3.5226028558e-05 7.5347986694e-07
          8.4672377852e-05 3.5359949834e-05 6.8966909339e-07 9.4456176157e-05 3.5625704186e-05 5.2084362778e-07
          6.488415238e-05 3.6102112063e-05 9.6621192824e-07 5.4425068811e-05 4.8470365073e-06 1.2804584912e-06
          6.5392727265e-05 4.687746241e-06 1.4040974747e-06 9.4966984761e-05 5.3740927797e-06 1.2316966149e-06
          9.500503802e-05 5.0536918934e-06 1.2506282019e-06 5.529036207e-05 5.6393528212e-06 1.4005463527e-06
          8.3985789388e-05 5.9408007473e-06 1.0296630535e-06 9.4441733381e-05 5.6310764194e-06 1.3102317098e-06
          7.441364869e-05 1.4422566892e-05 1.4702037561e-06 5.50150653e-05 1.4886890312e-05 1.3422674101e-06
          7.5198935519e-05 1.5517503925e-05 1.3930658724e-06 8.5501043941e-05 1.5613282812e-05 1.3560419347e-06
          9.5093681011e-05 1.5587880625e-05 1.0790727174e-06 7.559304504e-05 2.3962225896e-05 1.3414309024e-06
          6.4762105467e-05 2.4749990189e-05 1.2104688949e-06 6.5221291152e-05 2.4679051421e-05 1.4071603118e-06
          8.3969767729e-05 2.4729406505e-05 1.1936707551e-06 9.4977636763e-05 2.4631885026e-05 1.0945063877e-06
          7.5380405178e-05 2.5462555641e-05 1.0449142565e-06 9.5423682069e-05 2.5782926969e-05 1.3443133184e-06
          6.4553860284e-05 3.4913715353e-05 1.3546061837e-06 8.6094325525e-05 3.4515283915e-05 1.3469593796e-06
          9.5049916126e-05 3.457753337e-05 1.3075974721e-06 7.4935051089e-05 3.5170527553e-05 1.4228319287e-06
          9.541601321e-05 3.5343939089e-05 1.4384031601e-06 9.4198803708e-05 3.9205433495e-06 1.583335461e-06
          8.5252075223e-05 4.9357850003e-06 1.8888913473e-06 9.3397211458e-05 4.7667299441e-06 1.5405817066e-06
          7.5530188042e-05 5.7175725487e-06 1.6839239834e-06 5.5061133025e-05 1.4331031707e-05 1.9732824512e-06
          6.4123094489e-05 1.4452554751e-05 1.5898208403e-06 7.5557625678e-05 1.4418917999e-05 1.5944715415e-06
          8.5660605691e-05 1.4400603504e-05 1.568837547e-06 9.5200812211e-05 1.4256289433e-05 1.5119001091e-06
          6.5435939177e-05 1.4694328456e-05 1.5239912727e-06 8.3880768216e-05 1.4841160009e-05 1.7355746422e-06
          9.4279675977e-05 1.4758335965e-05 1.5295282765e-06 5.4267402447e-05 1.5270828953e-05 1.6530276525e-06
          5.4447544244e-05 2.4505787223e-05 1.6386263724e-06 5.5626889662e-05 2.4714639949e-05 1.5435635987e-06
          5.4752363212e-05 3.3567757782e-05 1.8894201048e-06 5.5910561059e-05 3.435031249e-05 1.8172017917e-06
          7.5625008321e-05 3.4431388485e-05 1.5676009752e-06 5.4783486121e-05 3.466227281e-05 1.6922056147e-06
          7.457157335e-05 3.4907759982e-05 1.9687063286e-06 8.4402847278e-05 3.5645505704e-05 1.7265654151e-06
          7.4509887781e-05 4.9644659157e-06 2.2639280814e-06 7.6198455645e-05 5.2845034588e-06 2.0342133666e-06
          6.6109721956e-05 6.0598599703e-06 2.3878953925e-06 9.6025978564e-05 1.5197900211e-05 2.0312395463e-06
          5.5790322222e-05 1.556598545e-05 2.0499537641e-06 6.5018684836e-05 1.5568599338e-05 2.1207674763e-06
          8.5497027612e-05 2.4444010705e-05 2.0068027879e-06 9.453194798e-05 2.4825467335e-05 2.0926058824e-06
          7.5363634096e-05 2.5163946702e-05 2.1133935206e-06 5.4778713093e-05 2.5773239031e-05 2.1136361283e-06
          6.4780615503e-05 2.569337812e-05 2.2964434265e-06 8.4955034254e-05 3.4427655919e-05 2.0522943487e-06
          6.5599255322e-05 3.504106644e-05 2.3594952836e-06 9.5128394605e-05 3.5886492697e-05 2.3793011223e-06
          6.5295615059e-05 4.3925147111e-06 2.749721034e-06 5.5240994698e-05 4.782589258e-06 2.5227980132e-06
          6.500010204e-05 5.1084452934e-06 2.6112927571e-06 5.4611071391e-05 1.4436424863e-05 2.7325941119e-06
          6.4814201323e-05 2.4799428502e-05 2.8042650229e-06 5.4234784329e-05 2.500395567e-05 2.984744242e-06
          7.5581127021e-05 3.4258748201e-05 2.5334738893e-06
        </DataArray>
      </Points>
      <Cells>
        <DataArray type="Int64" Name="connectivity" format="ascii" RangeMin="0" RangeMax="218">
          0 1 2 3 4 5
          6 7 8 9 10 11
          12 13 14 15 16 17
          18 19 20 21 22 23
          24 25 26 27 28 29
          30 31 32 33 34 35
          36 37 38 39 40 41
          42 43 44 45 46 47
          48 49 50 51 52 53
          54 55 56 57 58 59
          60 61 62 63 64 65
          66 67 68 69 70 71
          72 73 74 75 76 77
          78 79 80 81 82 83
          84 85 86 87 88 89
          90 91 92 93 94 95
          96 97 98 99 100 101
          102 103 104 105 106 107
          108 109 110 111 112 113
          114 115 116 117 118 119
          120 121 122 123 124 125
          126 127 128 129 130 131
          132 133 134 135 136 137
          138 139 140 141 142 143
          144 145 146 147 148 149
          150 151 152 153 154 155
          156 157 158 159 160 161
          162 163 164 165 166 167
          168 169 170 171 172 173
          174 175 176 177 178 179
          180 181 182 183 184 185
          186 187 188 189 190 191
          192 193 194 195 196 197
          198 199 200 201 202 203
          204 205 206 207 208 209
          210 211 212 213 214 215
          216 217 218
        </DataArray>
        <DataArray type="Int64" Name="offsets" format="ascii" RangeMin="1" RangeMax="219">
          1 2 3 4 5 6
          7 8 9 10 11 12
          13 14 15 16 17 18
          19 20 21 22 23 24
          25 26 27 28 29 30
          31 32 33 34 35 36
          37 38 39 40 41 42
          43 44 45 46 47 48
          49 50 51 52 53 54
          55 56 57 58 59 60
          61 62 63 64 65 66
          67 68 69 70 71 72
          73 74 75 76 77 78
          79 80 81 82 83 84
          85 86 87 88 89 90
          91 92 93 94 95 96
          97 98 99 100 101 102
          103 104 105 106 107 108
          109 110 111 112 113 114
          115 116 117 118 119 120
          121 122 123 124 125 126
          127 128 129 130 131 132
          133 134 135 136 137 138
          139 140 141 142 143 144
          145 146 147 148 149 150
          151 152 153 154 155 156
          157 158 159 160 161 162
          163 164 165 166 167 168
          169 170 171 172 173 174
          175 176 177 178 179 180
          181 182 183 184 185 186
          187 188 189 190 191 192
          193 194 195 196 197 198
          199 200 201 202 203 204
          205 206 207 208 209 210
          211 212 213 214 215 216
          217 218 219
        </DataArray>
        <DataArray type="UInt8" Name="types" format="ascii" RangeMin="1" RangeMax="1">
          1 1 1 1 1 1
          1 1 1 1 1 1
          1 1 1 1 1 1
          1 1 1 1 1 1
          1 1 1 1 1 1
          1 1 1 1 1 1
          1 1 1 1 1 1
          1 1 1 1 1 1
          1 1 1 1 1 1
          1 1 1 1 1 1
          1 1 1 1 1 1
          1 1 1 1 1 1
          1 1 1 1 1 1
          1 1 1 1 1 1
          1 1 1 1 1 1
          1 1 1 1 1 1
          1 1 1 1 1 1
          1 1 1 1 1 1
          1 1 1 1 1 1
          1 1 1 1 1 1
          1 1 1 1 1 1
          1 1 1 1 1 1
          1 1 1 1 1 1
          1 1 1 1 1 1
          1 1 1 1 1 1
          1 1 1 1 1 1
          1 1 1 1 1 1
          1 1 1 1 1 1
          1 1 1 1 1 1
          1 1 1 1 1 1
          1 1 1 1 1 1
          1 1 1 1 1 1
          1 1 1 1 1 1
          1 1 1 1 1 1
          1 1 1 1 1 1
          1 1 1 1 1 1
          1 1 1
        </DataArray>
      </Cells>
    </Piece>
  </UnstructuredGrid>
</VTKFile>
