<?xml version="1.0"?>
<VTKFile type="UnstructuredGrid" version="0.1" byte_order="LittleEndian" header_type="UInt32" compressor="vtkZLibDataCompressor">
  <UnstructuredGrid>
    <Piece NumberOfPoints="2191" NumberOfCells="2191">
      <PointData>
        <DataArray type="Int32" Name="id" format="ascii" RangeMin="1" RangeMax="2205">
          1157 275 2050 1843 820 2054
          333 704 1806 814 921 719
          1947 604 2097 2055 2049 2128
          274 920 79 1098 1590 95
          1441 2 1203 1236 1142 1037
          276 41 80 1 92 1528
          1244 1202 627 1048 2155 1288
          1466 1684 45 1184 81 287
          161 1865 82 240 1245 230
          2051 1269 571 277 2075 1185
          929 1884 1080 164 1917 1371
          280 707 1631 1034 1529 386
          1527 891 1777 1247 235 655
          2095 700 1035 1042 47 411
          2076 231 1497 84 479 445
          94 786 1807 1353 1186 387
          2100 477 163 234 1778 572
          815 818 268 705 783 233
          821 1605 1249 702 2156 1842
          90 1165 243 1097 1887 1444
          1250 291 480 2101 706 573
          528 1168 2129 481 537 1866
          505 1445 1100 1945 1735 1944
          1685 1686 444 1984 654 1102
          1919 1398 1399 2005 1889 1246
          892 582 552 1442 476 416
          2006 605 83 155 701 1427
          289 626 200 21 1918 1470
          1738 2096 1271 536 2032 1220
          709 657 1689 48 482 506
          1500 2077 1374 1966 656 2056
          42 712 292 703 2131 1354
          299 1779 1352 1499 2133 1270
          168 1043 574 1189 1335 1443
          577 1401 44 1033 893 1045
          162 1104 504 1237 1032 478
          202 418 1101 2053 294 1951
          2132 1311 448 1430 1781 1946
          1844 609 2103 1765 2052 232
          1161 1159 199 1372 1158 412
          1498 683 1780 1248 483 782
          715 1036 1737 417 1373 1565
          31 278 1099 924 32 535
          1426 817 1736 446 2102 1187
          455 678 297 220 1606 1004
          1310 1251 1920 1201 1429 925
          286 1400 819 784 628 1503
          922 237 1160 1739 1166 1038
          575 679 1782 2033 1005 813
          1031 1051 681 653 422 1885
          1759 1040 238 1163 684 1376
          1566 2099 1886 1985 295 1471
          1688 1986 1002 1428 1948 86
          816 85 203 2130 282 2098
          2034 1869 2078 173 1081 1633
          2159 153 1867 49 824 279
          1949 793 1714 1289 419 1204
          1952 285 1567 1162 160 1044
          388 2035 713 1607 1039 1402
          1634 93 281 87 520 785
          1530 1687 1472 1205 629 1313
          1950 1760 2104 576 658 1783
          1891 88 1041 1531 1892 1501
          1292 2080 822 1713 1047 708
          1052 1312 484 1653 529 1921
          1334 447 895 1654 1868 1003
          2157 1403 1164 714 1167 89
          1502 680 1785 2079 787 284
          710 415 507 1050 1049 12
          288 1046 1291 825 1888 1290
          1190 1007 894 1632 2031 46
          829 682 827 1377 606 22
          167 923 236 823 1103 283
          1761 1504 1784 390 1375 711
          91 1473 2036 896 43 1655
          826 166 1082 420 389 1053
          578 1337 1272 11 2158 2057
          1763 2007 421 607 1054 1532
          165 1336 1105 1006 290 1608
          1845 1221 1922 1188 201 1870
          1591 1106 449 1893 579 1890
          2134 828 1446 2037 293 1764
          1894 1474 1465 1554 1690 1592
          1143 1953 1786 1222 2038 1740
          1273 1846 1895 239 1718 97
          2008 1267 1238 1056 926 1954
          1107 1206 1808 1847 930 334
          303 1112 1113 1110 950 110
          608 832 311 106 1656 3
          1169 1062 791 1475 1404 1533
          564 312 1008 298 486 96
          397 1223 662 169 660 936
          1010 1055 928 1111 1787 1338
          14 789 1741 391 1826 98
          1788 632 108 55 901 831
          1011 1871 1316 100 451 1450
          413 663 1717 1447 1742 1660
          2163 717 902 1314 1743 931
          2040 1317 1057 555 1224 242
          241 1594 933 1058 1356 1059
          1315 296 425 111 1109 307
          927 488 944 1691 1508 1789
          385 308 720 1405 844 1170
          1695 839 1449 59 510 1276
          1448 1294 221 394 1144 1060
          316 836 317 310 2106 331
          1014 1535 1406 557 1319 485
          206 1506 170 1210 1293 459
          180 114 792 904 847 302
          2009 1225 426 2135 1108 450
          1358 837 1715 581 2136 2138
          1534 898 1957 1958 1959 1850
          1790 23 423 1295 1275 1117
          554 25 24 56 1694 1009
          1923 154 945 1318 1192 335
          585 835 1744 508 329 845
          1926 834 530 2058 1659 830
          1747 1378 610 115 452 1207
          4 1988 1252 490 946 2082
          1357 2041 1208 52 2166 1431
          1145 567 324 1320 489 1536
          209 50 1570 1171 1507 685
          2083 1321 580 453 1692 1120
          539 1061 1239 53 454 897
          1571 1268 661 1274 392 300
          1635 1609 175 2011 1355 1084
          1987 1811 1716 2105 457 1407
          1323 726 1658 178 584 1745
          942 172 270 905 2039 1593
          1410 2081 1505 538 1746 1960
          723 1876 932 207 1874 223
          1610 1322 314 1873 903 899
          1016 1794 631 174 1359 728
          1122 61 309 1697 1568 833
          208 854 1071 1379 1340 509
          790 1569 635 105 1211 1537
          2060 934 2061 112 458 1226
          1662 2167 1872 1793 566 2137
          935 395 1172 318 1088 325
          332 937 1924 900 1124 301
          1086 1875 321 313 521 204
          320 1213 1209 716 1611 1476
          1809 205 1849 1762 1277 1955
          718 269 304 102 1477 1380
          523 315 1191 487 1173 1114
          687 1339 1174 1146 724 1432
          1829 118 556 104 33 2059
          1509 1065 730 949 1928 1896
          1848 583 1897 393 794 1927
          611 630 113 2161 850 846
          1013 2160 586 427 1240 939
          1965 177 1636 305 1085 940
          1510 2086 1637 906 725 522
          1828 1698 2010 54 722 116
          1693 171 414 1792 553 633
          1661 938 1409 109 1925 424
          1253 542 1063 2164 396 951
          2165 838 222 943 1408 58
          1696 1175 1066 1069 729 2084
          34 271 1478 855 1017 1451
          35 1119 796 456 1961 2107
          1612 1341 398 2109 1851 1212
          1573 1381 1083 1626 856 840
          1791 244 1512 2162 1638 540
          1147 1511 245 853 1018 319
          1297 15 107 1243 1116 1115
          2139 326 731 1810 1657 1572
          941 541 558 2012 1878 511
          842 327 306 1068 843 1827
          1121 57 1070 60 1118 1812
          634 1748 1148 117 1064 1298
          1015 636 2111 247 1929 1663
          2085 1296 5 1193 851 1214
          1665 1382 1877 176 1241 686
          1956 852 664 659 101 947
          727 1360 328 322 1412 2062
          1254 1299 323 330 2043 156
          1513 1324 1072 1962 559 1067
          2110 1411 795 51 1215 1574
          1087 1964 1194 531 179 1795
          461 1123 948 721 1195 1242
          1963 1479 460 1989 2168 2108
          1664 2013 2014 2169 1126 953
          2018 121 955 974 738 1967
          1073 741 612 674 2115 670
          1596 673 1559 1852 1853 975
          6 1282 2116 2170 348 1539
          1179 119 1749 2112 857 120
          337 338 524 1129 797 355
          132 1575 336 513 1830 960
          1971 122 512 2015 248 2064
          350 907 862 428 1931 492
          1796 1383 562 1384 1433 739
          1595 803 2016 1581 1968 252
          1719 1797 613 2020 1255 1515
          67 1750 1516 732 1519 1639
          1492 211 1699 549 1517 733
          249 688 493 588 124 1969
          1578 134 36 1177 800 1178
          1413 1256 735 1149 543 341
          431 1279 736 1453 1020 665
          1538 749 1597 251 1021 130
          801 747 864 1555 1414 1898
          2173 1452 1613 462 432 1930
          1542 952 1125 591 858 189
          1326 2023 966 1540 64 1283
          2067 798 1933 1514 1301 863
          343 2063 2017 637 213 1972
          560 1518 400 2180 1490 1723
          66 1766 429 210 1012 1278
          26 1970 1769 1721 1386 1751
          37 272 184 157 1900 491
          638 1545 1580 1579 1904 1544
          2176 1973 2024 1932 1541 2178
          1022 956 2177 1128 7 181
          1074 1342 1454 257 2087 969
          910 1576 2026 957 403 1990
          1361 2065 1417 1362 2117 859
          590 1300 1815 2068 1385 744
          587 1343 1817 17 1722 2179
          961 434 1672 639 1280 1627
          2025 908 641 1934 804 799
          734 1577 568 357 1724 669
          352 640 2140 1666 963 1668
          532 126 2113 1831 1456 1387
          401 737 2141 494 1640 1480
          2172 1325 666 1832 464 675
          1520 224 1228 1935 212 1753
          1752 545 1899 1364 1019 2171
          1229 1641 62 644 1176 1345
          1388 1130 860 255 2022 433
          1615 1642 743 561 954 959
          1127 1671 750 689 399 1363
          1546 2184 1415 1667 615 2027
          1614 1416 806 250 1227 1481
          868 752 616 2114 1491 27
          430 340 465 1281 1543 1284
          544 68 253 617 358 1854
          802 466 2186 1616 1855 214
          1700 1089 614 909 435 965
          976 1976 1286 867 1344 349
          254 861 402 805 593 592
          1455 2066 133 182 1813 127
          1389 356 183 1257 185 1434
          2019 1670 1230 463 1991 128
          1390 123 1767 345 1768 1327
          1023 342 125 353 742 964
          667 642 690 2185 1090 347
          1902 1905 514 2175 668 2088
          1856 1798 1903 1814 1599 2021
          546 1725 1879 643 404 1880
          2174 1132 187 589 970 339
          65 344 958 351 1133 1669
          525 745 746 1598 16 1720
          256 2069 871 911 495 1418
          1024 1937 1258 672 1557 962
          1617 2142 346 1901 1365 129
          1328 69 1992 354 1857 967
          1131 1231 971 1285 1391 131
          467 63 973 865 1419 1302
          1150 740 1936 751 1643 2144
          748 2143 1701 1558 186 866
          1993 972 1974 1618 2044 2181
          1556 1816 2182 1457 1975 2183
          2089 912 968 671 1369 188
          405 526 1370 1482 869 691
          1938 2118 2119 870 1673 1483
          1818 1881 618 2091 2187 619
          1994 2090 1025 1196 1392 1420
          1833 1674 137 753 1858 1181
          779 1180 978 676 1134 1977
          1979 1773 1563 981 873 758
          2190 2197 761 876 1676 781
          375 148 762 1908 258 1834
          1995 471 135 1303 1348 1135
          594 437 367 1091 263 1548
          191 1939 1835 1437 136 1182
          498 1770 1644 985 1549 259
          1645 1996 150 1582 913 8
          754 1646 369 984 1216 620
          1329 1564 755 194 2205 1459
          138 1485 550 2092 872 515
          1151 645 2145 1152 917 756
          360 1982 1906 261 1435 361
          30 987 371 990 1882 914
          533 1907 1436 140 2196 264
          1551 1912 216 146 1914 759
          2045 992 1978 1197 1458 1583
          547 470 1422 2200 159 1940
          770 1234 384 469 1484 500
          1198 265 915 764 772 1600
          1423 877 1997 988 190 262
          692 1467 1183 1001 1862 1552
          196 1620 1218 696 376 773
          473 884 1561 227 2146 766
          497 215 496 1026 1726 1754
          2093 1260 408 1799 266 1836
          1704 260 228 1999 1305 2148
          995 226 1911 597 991 1232
          1550 1837 2030 1421 1801 158
          998 2191 380 1030 1703 2029
          193 1706 374 1678 2198 372
          1155 2121 1839 694 1941 983
          516 502 810 1708 596 1820
          2188 1346 1861 1547 1263 1679
          1396 808 2120 807 10 625
          1438 1998 1075 2028 989 1709
          468 993 409 475 1259 1092
          563 1649 1771 889 1366 195
          1093 144 598 1647 2195 2189
          1772 1621 2194 20 1261 1800
          19 1522 1461 1562 1702 1728
          139 1154 527 517 406 1909
          407 1802 1838 1029 1439 2072
          595 362 499 2000 381 1705
          1027 29 982 363 1619 229
          1675 2192 1623 760 693 1139
          1622 1264 1707 1095 142 366
          2125 1304 1913 225 624 1460
          78 1028 1630 1262 695 878
          1486 2147 1651 1883 441 9
          977 1586 2071 1331 436 1141
          1521 151 1628 438 1841 1585
          74 439 1942 410 647 767
          1981 2048 599 979 1287 2193
          442 359 882 1560 2203 1523
          1859 980 1755 1860 1821 1199
          994 2070 986 1487 1094 2127
          440 809 75 883 1138 1332
          697 1943 39 1803 1394 1493
          780 1553 518 1153 273 501
          2046 1910 1604 916 880 1819
          1397 1330 1732 2126 1233 2047
          149 1863 621 368 1584 646
          1393 1864 1306 2003 2151 1265
          378 198 1078 1601 1980 649
          1822 1136 811 881 1367 1077
          1774 879 757 570 73 1680
          1347 1824 600 1079 1710 1804
          874 141 1524 474 1648 519
          2204 152 365 2094 534 364
          1156 769 763 650 677 1650
          919 2149 143 2150 622 2122
          218 2001 1652 1488 1915 2199
          1727 1756 72 217 1235 1462
          602 503 1468 996 472 2073
          71 377 219 1424 1076 1349
          569 2002 1440 885 370 145
          1368 1729 551 1776 192 2152
          1677 1624 886 379 1840 1711
          768 76 1463 2202 875 1757
          1758 771 2123 147 77 1587
          1602 1731 1489 812 775 648
          1730 623 2074 765 603 2004
          918 1333 70 1137 382 1200
          1983 1351 373 1307 1308 548
          890 1681 1775 197 1266 1526
          776 887 1350 997 699 774
          1733 1525 2201 1682 1494 40
          1140 2124 267 1603 888 1588
          383 698 1217 777 999 651
          1629 1219 1495 1805 1823 1096
          1825 1625 443 778 652 1309
          1425 1469 2154 1000 1683 1395
          601 1734 1589 2153 1712 1916
          1496
        </DataArray>
        <DataArray type="Int32" Name="type" format="ascii" RangeMin="1" RangeMax="2">
          2 2 2 2 2 2
          2 2 2 2 2 2
          2 2 2 2 2 1
          2 2 2 2 2 2
          1 1 2 2 1 2
          2 2 2 1 2 1
          1 2 1 2 2 1
          2 1 1 1 2 2
          1 1 2 2 1 2
          2 1 1 2 1 1
          2 2 1 1 1 1
          2 2 1 2 1 1
          1 1 1 1 2 2
          2 2 2 2 1 2
          1 2 1 2 1 1
          2 1 2 1 1 1
          2 1 1 2 1 1
          2 2 1 2 1 2
          2 1 1 2 2 2
          2 2 2 2 2 1
          1 2 1 2 2 1
          1 2 1 1 1 1
          1 1 2 2 1 2
          1 1 1 1 2 2
          1 1 1 2 2 1
          1 1 1 1 1 1
          2 2 2 1 2 1
          2 1 1 1 1 1
          1 2 1 1 1 1
          2 2 1 1 1 1
          1 1 1 2 2 2
          1 2 2 2 1 1
          2 1 1 1 1 1
          1 2 1 1 1 1
          1 1 1 2 1 2
          1 2 1 2 2 1
          1 1 2 2 2 2
          1 1 1 1 1 2
          2 2 2 2 2 2
          2 2 1 1 2 2
          1 1 1 1 1 1
          2 2 1 1 1 1
          1 2 2 2 1 1
          1 2 1 1 2 1
          1 1 2 1 1 1
          1 1 1 2 1 2
          2 1 2 1 1 1
          2 2 2 1 2 2
          1 1 1 1 1 2
          2 2 1 2 1 2
          2 2 2 2 1 1
          1 2 2 1 2 1
          1 1 1 1 2 2
          2 2 1 1 2 2
          1 1 1 1 1 1
          2 1 1 1 2 2
          2 1 2 1 1 2
          2 2 1 2 1 2
          1 1 2 1 2 1
          1 2 2 2 1 1
          1 1 1 2 1 1
          2 2 2 1 2 1
          2 2 2 1 2 1
          1 1 2 2 2 2
          2 1 1 2 1 1
          1 1 1 2 1 1
          2 1 2 2 2 2
          1 1 1 1 1 2
          2 1 1 2 2 1
          2 2 1 2 2 1
          1 1 1 1 1 1
          2 1 2 1 2 1
          1 2 2 2 2 2
          2 1 1 1 1 2
          2 1 1 1 1 2
          2 1 1 1 1 2
          1 1 1 1 2 2
          2 2 1 2 2 1
          1 1 2 1 2 1
          2 1 1 1 1 1
          2 2 1 2 1 2
          1 2 1 1 2 2
          2 1 2 2 1 2
          1 2 1 1 1 1
          1 2 2 2 2 2
          2 2 2 2 2 2
          2 2 2 2 2 2
          2 2 2 2 2 2
          2 2 2 2 2 1
          2 2 1 1 1 1
          2 2 1 2 1 2
          1 1 2 1 2 2
          1 2 2 2 1 1
          1 1 1 1 1 2
          1 1 2 1 1 2
          1 1 1 2 1 1
          2 2 2 1 1 2
          2 2 1 1 1 2
          1 1 2 1 1 2
          2 2 2 2 1 2
          1 2 1 2 2 2
          2 1 2 1 1 1
          1 2 2 1 2 2
          1 2 1 1 1 1
          1 1 1 1 1 2
          2 2 2 2 2 2
          1 1 1 1 1 1
          1 1 1 2 1 1
          1 2 1 1 2 2
          2 1 1 1 2 1
          1 2 2 1 1 1
          1 1 2 2 2 2
          1 1 1 1 1 2
          1 1 1 1 1 1
          1 1 2 1 1 2
          1 2 1 1 2 2
          1 2 1 2 2 2
          1 1 2 2 1 2
          1 1 1 1 2 1
          1 1 2 1 2 1
          1 2 2 1 1 1
          1 1 1 2 1 1
          1 1 1 1 1 2
          1 2 2 1 1 1
          1 2 2 1 1 2
          1 1 1 2 1 1
          1 2 2 2 1 1
          1 2 2 1 1 1
          2 1 1 1 1 2
          1 1 1 1 1 2
          2 1 2 1 1 1
          1 1 2 1 1 1
          1 1 1 1 1 2
          2 1 2 1 1 2
          1 2 2 1 1 1
          1 1 1 2 2 1
          2 2 2 2 1 1
          2 2 1 1 2 1
          2 1 2 2 1 2
          2 2 1 1 2 2
          1 1 2 2 1 1
          2 2 2 2 1 1
          2 1 2 2 1 2
          2 1 2 2 1 1
          1 2 1 1 2 2
          1 1 2 1 2 1
          1 2 1 2 1 2
          1 2 2 2 1 2
          2 1 2 1 1 1
          2 1 2 2 2 2
          1 2 1 1 2 2
          2 1 1 2 1 2
          1 1 1 1 2 1
          1 1 2 1 2 2
          1 1 2 1 1 1
          2 2 1 2 1 1
          1 1 2 2 1 2
          2 2 1 2 1 1
          1 2 2 2 2 1
          1 1 1 2 1 1
          1 2 1 1 2 2
          1 1 1 2 2 2
          1 1 1 2 2 2
          1 2 1 2 1 1
          1 1 2 2 1 2
          1 1 2 2 2 2
          1 2 2 2 2 1
          2 1 1 2 1 1
          2 2 2 2 2 1
          2 1 2 1 2 2
          1 1 1 2 2 1
          1 1 2 2 1 2
          1 1 1 1 2 2
          2 1 1 1 2 1
          2 2 2 2 2 2
          2 1 2 2 1 2
          1 1 2 2 1 1
          1 1 2 2 1 2
          2 1 1 1 2 1
          1 2 1 1 1 1
          1 2 2 2 1 2
          2 1 1 1 2 2
          2 2 2 2 2 2
          2 2 2 2 2 2
          2 2 2 2 2 2
          2 2 2 2 2 2
          1 1 2 2 2 1
          2 2 1 2 2 2
          2 2 1 2 1 2
          2 1 2 1 1 2
          2 2 1 2 2 2
          2 1 2 1 1 1
          1 1 1 1 1 2
          2 1 2 1 2 2
          2 1 2 2 1 1
          1 1 1 2 1 1
          2 1 1 2 1 2
          2 1 1 1 2 2
          1 2 1 2 1 2
          1 1 2 1 1 2
          1 1 2 1 1 2
          1 2 2 2 1 2
          1 2 2 2 1 2
          2 1 1 1 1 1
          1 2 2 1 2 1
          1 2 2 1 1 1
          2 1 1 1 1 2
          2 2 2 1 1 2
          1 1 1 2 2 2
          1 2 1 1 1 1
          1 2 2 2 1 1
          1 1 1 1 2 1
          1 1 1 1 2 1
          2 2 2 1 1 2
          1 2 2 2 1 1
          2 1 1 2 1 2
          1 1 2 2 1 1
          1 2 1 1 2 2
          1 1 2 2 1 2
          1 1 2 1 2 2
          2 1 2 1 1 2
          2 1 1 1 1 1
          2 1 2 2 2 2
          2 1 1 2 2 2
          1 2 2 1 1 1
          1 2 1 1 1 1
          2 1 2 1 1 2
          1 1 1 1 1 1
          1 1 2 1 1 2
          1 1 1 1 2 1
          1 2 2 2 2 1
          1 1 2 1 2 2
          2 2 2 1 1 1
          1 2 1 2 2 2
          1 1 1 2 1 1
          2 2 2 2 2 1
          1 2 1 1 1 1
          1 1 2 2 2 2
          1 1 2 1 2 1
          1 1 2 1 1 2
          2 2 1 2 1 2
          2 2 1 1 1 1
          1 2 2 1 2 2
          1 2 1 1 1 1
          2 2 1 1 1 2
          1 2 2 2 2 1
          1 2 2 2 2 2
          2 1 1 2 1 2
          2 2 1 2 2 1
          2 1 2 2 2 2
          1 2 1 1 1 1
          2 2 1 1 2 2
          1 2 2 2 2 2
          1 2 2 2 1 2
          2 2 2 1 1 1
          1 1 1 2 2 2
          1 1 2 2 1 2
          1 1 1 2 2 2
          2 1 2 1 1 2
          1 1 2 2 1 1
          1 2 1 2 1 1
          2 1 1 2 1 2
          1 2 2 1 1 2
          2 2 2 1 2 2
          1 1 2 2 2 1
          1 1 2 1 2 1
          1 2 2 2 2 1
          2 1 2 1 2 2
          1 1 1 1 1 1
          1 2 2 2 2 2
          2 2 2 2 2 2
          2 2 2 2 2 2
          2 2 2 2 2 2
          2 2 2 2 2 1
          1 1 2 1 1 2
          1 1 2 1 2 1
          1 1 1 1 2 2
          1 2 1 2 1 2
          1 1 2 1 1 1
          2 1 2 2 2 2
          1 2 2 1 2 1
          2 1 2 1 2 1
          1 1 1 1 1 2
          2 2 2 2 1 2
          1 2 2 2 1 1
          1 2 1 2 2 2
          1 2 1 2 2 2
          1 2 2 1 1 1
          1 1 1 2 1 1
          2 1 2 1 1 1
          1 2 1 2 2 2
          1 2 1 2 1 2
          1 2 2 2 2 1
          1 1 2 1 2 2
          1 2 2 2 1 2
          1 1 1 1 2 1
          1 1 1 1 2 1
          1 2 2 1 1 1
          2 1 2 1 2 1
          1 1 2 1 1 1
          2 2 2 1 1 2
          1 1 2 2 2 2
          1 2 1 1 1 2
          1 1 1 1 1 2
          2 1 2 1 1 2
          2 1 2 1 1 2
          1 1 2 2 2 1
          1 2 1 1 1 1
          1 1 2 2 1 1
          1 2 1 1 2 2
          2 1 2 1 1 1
          1 1 1 2 1 2
          2 1 1 1 1 2
          1 1 1 1 1 2
          1 2 1 1 2 1
          1 1 2 2 1 1
          2 2 1 2 1 2
          1 1 1 1 2 2
          2 1 2 1 2 1
          1 1 2 1 1 2
          1 1 1 1 1 1
          2 1 2 1 1 2
          1 2 2 1 1 1
          1 1 1 1 1 2
          2 1 1 2 1 2
          1 2 2 2 2 1
          2 2 1 2 2 1
          2 2 2 1 1 2
          1 1 1 2 2 1
          1 1 1 1 1 2
          2 1 1 1 1 1
          1 2 2 1 2 2
          2 1 2 2 1 1
          2 2 2 2 1 1
          1 2 1 1 1 1
          2 1 2 2 2 1
          2 2 1 2 1 2
          2 2 2 2 1 2
          1 2 1 2 1 1
          2 2 1 1 1 1
          2 2 2 1 1 2
          1 2 2 1 2 1
          1 1 2 1 2 2
          1 1 1 1 2 2
          2 1 1 1 1 1
          1 1 2 2 1 2
          1 2 1 1 2 1
          2 1 1 2 2 2
          1 2 2 2 1 1
          2 1 2 2 1 1
          2 1 1 2 2 1
          1 2 2 2 1 1
          2 2 1 1 2 1
          2 2 2 2 1 1
          1 1 1 2 2 1
          2 1 2 1 1 1
          2 2 2 1 1 2
          2 2 1 2 1 2
          2 1 2 2 2 1
          2 2 2 2 2 1
          2 1 2 2 2 1
          2 2 2 1 2 1
          2 1 1 2 1 1
          1 2 1 2 2 1
          1 2 1 1 1 2
          2
        </DataArray>
        <DataArray type="Float64" Name="diameter" format="ascii" RangeMin="1e-08" RangeMax="1.3724963394e-06">
          9.8155719514e-07 1.0000163321e-06 9.0503140918e-07 9.4658891722e-07 8.4404517542e-07 9.6018620679e-07
          8.9679446766e-07 9.0099076952e-07 9.812649783e-07 9.2679530487e-07 9.6246401356e-07 8.4201613211e-07
          9.4753257301e-07 9.4936815002e-07 9.5889039641e-07 1.1278338476e-06 1.1134595094e-06 1.1200533488e-06
          1.1576835693e-06 1.0277534599e-06 1.0126040898e-06 1.0764381057e-06 1.022569417e-06 1.012235104e-06
          1.1542684943e-06 1.2995032054e-06 1.0676615659e-06 1.0852453818e-06 1.316982892e-06 1.0926302902e-06
          1.1031348938e-06 1e-08 1.0059240923e-06 1.359094098e-06 1.0355713479e-06 1.2592185236e-06
          1.3535483772e-06 1.0913243818e-06 1.2975968191e-06 1.0670151742e-06 9.8876619484e-07 1.3483085654e-06
          9.5795331033e-07 1.2023993464e-06 1.1304828706e-06 1.3275358596e-06 9.9136410158e-07 1.167644638e-06
          1.163884794e-06 1.0704939751e-06 1.0485190095e-06 1.1236839061e-06 1.2886089269e-06 1.0227880832e-06
          1.0153785747e-06 1.0768756619e-06 1.2692619667e-06 1.0828989703e-06 1.0394622169e-06 1.1740528902e-06
          1.0476548153e-06 1.0517354715e-06 1.1391521099e-06 1.1836993618e-06 1.1837604745e-06 1.3512354514e-06
          1.0969814486e-06 1.18531985e-06 1.2055189975e-06 1.1620052272e-06 1.1990050152e-06 1.2857409679e-06
          1.2354970534e-06 1.1801510669e-06 1.1277718308e-06 1.2536851781e-06 1.1279649405e-06 1.0611344914e-06
          1.0479156383e-06 9.9362228283e-07 1.0811109956e-06 1.0106121756e-06 1.2808034073e-06 1.1292671822e-06
          1.1374002608e-06 1.0488051626e-06 1.184234618e-06 1.0486022859e-06 1.3506834668e-06 1.2679464773e-06
          1.0381907955e-06 1.1268080857e-06 1.144497696e-06 1.2695854529e-06 1.0534819063e-06 1.3171541646e-06
          1.0109679e-06 1.2795216374e-06 1.0697877407e-06 1.0578118146e-06 1.0980167968e-06 1.2060279158e-06
          1.0304709771e-06 1.0997771727e-06 1.0368667586e-06 1.0313409546e-06 1.1928507173e-06 1.1049073364e-06
          1.0032869922e-06 1.128147302e-06 1.3438926592e-06 1.0230056465e-06 1.1344790193e-06 1.1457194531e-06
          1.0063470536e-06 1.1341028462e-06 1.0391964791e-06 1.0100122879e-06 1.0297600648e-06 1.2829728441e-06
          1.1525361859e-06 1.0108598557e-06 1.1757097162e-06 9.9627557266e-07 9.1447563421e-07 1.0684577776e-06
          1.2154869322e-06 9.0443947036e-07 1.1134930831e-06 1.2427382736e-06 1.2484082728e-06 1.0867863651e-06
          1.2094512504e-06 1.3379091654e-06 9.6505163305e-07 9.1092625311e-07 1.1563541623e-06 9.6169344356e-07
          1.0991792218e-06 1.1199907049e-06 1.1106693277e-06 1.0409305805e-06 9.1920039919e-07 1.002605902e-06
          1.0552383178e-06 1.2259699149e-06 1.2937090173e-06 9.9728308538e-07 9.6994944892e-07 1.1827989507e-06
          1.2090124121e-06 1.2006908298e-06 1.3441026859e-06 1.2850501334e-06 1.1699748722e-06 1.0420846895e-06
          9.5449137893e-07 9.4556759746e-07 9.8019147064e-07 1.2137856729e-06 9.2016549842e-07 1.2081893666e-06
          1.0107209027e-06 1.2368855967e-06 1.1244082689e-06 1.2784395882e-06 1.1702095162e-06 1.1354035495e-06
          1.0824480419e-06 9.0404831806e-07 1.3030845335e-06 1.0618484872e-06 1.1239641761e-06 1.3317739956e-06
          1.0354323287e-06 9.7134941242e-07 1.1000256847e-06 1.3382357558e-06 1.149085155e-06 1.2449846454e-06
          1.2237940313e-06 1.03699749e-06 1.2814732322e-06 9.4742452839e-07 1.181588294e-06 9.6506400435e-07
          1.1607435531e-06 1.0990232586e-06 1.1356575177e-06 1.0282693778e-06 1.1287922519e-06 1.1528243813e-06
          1.0323122549e-06 1.0674171258e-06 1.2893528969e-06 1.15764687e-06 1.0138638429e-06 1.3075374456e-06
          1.2031308842e-06 9.5425813083e-07 1.3017716313e-06 1.0638476698e-06 1.335244445e-06 1.1629806856e-06
          1.2195797392e-06 1.24985272e-06 1.1865982022e-06 1.0696905703e-06 1.1078972812e-06 9.1797233996e-07
          1.1701226724e-06 1.0907730847e-06 1.3088584741e-06 1.067835378e-06 9.5382901628e-07 1.2020253797e-06
          1.172897351e-06 1.1586113891e-06 8.1982389022e-07 8.9446292647e-07 1.0401590717e-06 1.045671348e-06
          1.0823929501e-06 1.3440826215e-06 1.2207027144e-06 1.3425612879e-06 1.2053638951e-06 1.001177149e-06
          1.1320088941e-06 9.9276096074e-07 9.6326856811e-07 1.1266553798e-06 9.7056987918e-07 9.9064811419e-07
          9.1262493783e-07 9.7123209386e-07 1.1473117575e-06 1.3509319265e-06 1.0313512079e-06 1.0207622394e-06
          1.3036482629e-06 1.1589045534e-06 1.1323942674e-06 1.3551927165e-06 1.1491187933e-06 1.2157588287e-06
          8.8760122079e-07 8.3518232419e-07 1.1884812308e-06 1.1513465513e-06 1.2070008501e-06 1.1583346414e-06
          1.1215356689e-06 9.4818083423e-07 8.5932920287e-07 1.1089766126e-06 1.2021367217e-06 1.1824233835e-06
          1.2967647258e-06 8.118130908e-07 1.1011188968e-06 1.3411048994e-06 1.1080678643e-06 1.3280925795e-06
          1.2543816393e-06 1.1559992159e-06 9.2565345671e-07 1.2970255753e-06 1.1873668865e-06 1.2517534822e-06
          1.3524660686e-06 1.1772855838e-06 1.0901158426e-06 9.727020769e-07 1.16969754e-06 1.0895086499e-06
          1.137823232e-06 1.2920467686e-06 9.8413130261e-07 1.3526378614e-06 1.1522491451e-06 1.1355064288e-06
          9.4700574667e-07 1.1636577402e-06 9.1697660243e-07 1.0888558536e-06 1.0114877101e-06 1.0473758889e-06
          1.1825755548e-06 1.2875272818e-06 1.1739025782e-06 1.0877655288e-06 1.3350052979e-06 1.0661444726e-06
          1.1035323819e-06 1.0686283577e-06 1.2658688388e-06 9.2602817604e-07 1.2070122739e-06 1.00465593e-06
          1.029922855e-06 9.8368879441e-07 9.4847784468e-07 9.4187380457e-07 1.0711564572e-06 1.2296654842e-06
          1.1695260316e-06 1.0672621529e-06 9.8380273315e-07 1.0663234829e-06 1.0526302263e-06 1.2718544867e-06
          1.1702403849e-06 1.1068615932e-06 1.1263067115e-06 1.1775049678e-06 1.0608228262e-06 1.1034051094e-06
          1.0155549175e-06 1.0076326333e-06 1.3647918736e-06 1.1172058706e-06 1.1074391786e-06 1.0509351373e-06
          1.1603808184e-06 1.1718444663e-06 1.0704695746e-06 1.0529794901e-06 1.203479051e-06 1.2006203425e-06
          9.7628135391e-07 1.2722726525e-06 1.1201538807e-06 1.0892014652e-06 1.1472160648e-06 9.6410738173e-07
          1.1026853186e-06 1.2246128776e-06 9.9854811784e-07 1.0732806691e-06 1.2043496258e-06 8.964896566e-07
          9.2292343364e-07 9.4977625522e-07 1.1991945836e-06 9.7433116148e-07 1.2857446592e-06 9.3375556322e-07
          1.2009811747e-06 1.1322951479e-06 1.1388919283e-06 1.2548782132e-06 9.7497945959e-07 1.1614664925e-06
          1.1401514415e-06 1.0032743224e-06 1.0454881593e-06 1.0427600448e-06 1.2859351761e-06 1.215755857e-06
          1.120449327e-06 1.1326596291e-06 1.2096010588e-06 1.2018902713e-06 1.3041209827e-06 1.0920983907e-06
          1.1488113737e-06 1.1355818723e-06 9.9480046465e-07 1.3000412223e-06 9.5161397318e-07 1.1436802473e-06
          1.0368983575e-06 9.4667548276e-07 8.9529949023e-07 1.1322499599e-06 1.0624440985e-06 1.2654018048e-06
          1.3453116097e-06 1.1109687694e-06 8.9877115389e-07 1.0879333209e-06 1.1040522999e-06 9.2441560915e-07
          9.6512033466e-07 1.2555025866e-06 1.1825431426e-06 1.0192739726e-06 1.3450819394e-06 1.0938771076e-06
          1.2249519146e-06 1.2426785706e-06 1.1236297818e-06 1.1412922719e-06 1.1970519561e-06 1.0720171885e-06
          9.470416268e-07 1.310726996e-06 9.402321958e-07 9.5986419918e-07 9.7062610999e-07 9.6739161437e-07
          1.2719536252e-06 1.324388473e-06 1.1653913126e-06 1.0380779357e-06 1.0519192666e-06 1.0737250942e-06
          8.8216049811e-07 1.3579384801e-06 1.1547575545e-06 1.0423856294e-06 9.6089530213e-07 1.2320922053e-06
          1.1107450559e-06 1.0238087173e-06 1.3437295647e-06 9.5051983357e-07 9.9106145603e-07 1.0948079208e-06