<?xml version="1.0"?>
<VTKFile type="UnstructuredGrid" version="0.1" byte_order="LittleEndian" header_type="UInt32" compressor="vtkZLibDataCompressor">
  <UnstructuredGrid>
    <Piece NumberOfPoints="2037" NumberOfCells="2037">
      <PointData>
        <DataArray type="Int32" Name="id" format="ascii" RangeMin="1" RangeMax="2037">
          591 84 608 82 270 1329
          83 242 1311 1292 376 850
          792 771 1661 808 1059 779
          772 1199 579 1666 580 1395
          1317 598 1299 1672 602 95
          283 599 1321 284 1325 603
          266 98 1709 352 606 1287
          1648 625 486 801 225 574
          1650 102 245 1202 85 1716
          577 1291 1053 1289 1203 1394
          593 4 1075 576 800 1532
          1077 1714 1719 1651 966 1686
          1722 538 1653 1310 418 271
          1720 1309 1533 953 578 244
          1717 791 343 575 1721 113
          257 196 1078 803 278 1760
          479 1079 1080 1657 773 594
          1689 1690 1204 807 967 1730
          1538 1082 539 91 715 806
          468 1662 344 1731 1823 14
          347 1692 419 1824 595 107
          1293 248 774 87 794 777
          540 637 969 247 1664 163
          1825 220 775 1296 778 354
          226 1665 1085 544 1092 1314
          273 956 25 717 1049 797
          957 970 1087 783 336 1669
          582 782 815 109 1668 249
          365 350 1206 1555 545 1341
          108 1744 110 262 93 1747
          1207 1088 1343 1535 1397 1396
          483 601 958 228 1324 281
          251 471 1401 472 585 1345
          959 586 1834 1676 1678 57
          1702 1704 1089 1751 960 1224
          183 962 1326 718 619 1367
          275 1707 719 1753 423 254
          1090 983 1543 1826 120 1828
          1711 253 784 358 1545 786
          1706 819 1546 623 1544 1682
          605 788 97 818 224 963
          255 268 475 964 1712 287
          604 101 1683 1328 1353 1649
          572 497 573 965 466 476
          1 1370 1104 353 426 1549
          41 464 1215 1076 1723 952
          1688 767 5 1656 1761 769
          770 1822 1831 837 13 105
          1399 334 1725 826 1534 716
          793 795 192 548 1767 776
          1697 1205 1733 51 827 335
          812 1294 1359 828 49 1209
          541 1110 796 1058 193 1739
          1832 422 1093 21 469 1553
          581 1405 357 370 1337 1742
          96 24 972 1297 221 1670
          1113 583 482 1699 1833 1318
          165 1094 181 1301 1302 166
          1406 1212 1748 1701 546 587
          1305 182 484 1559 373 1116
          1750 1570 100 1114 1346 1098
          434 1097 1827 841 588 425
          1117 433 35 1208 1118 1705
          621 32 61 269 790 1536
          34 229 99 589 185 174
          1091 1288 1757 1330 720 802
          722 768 467 1652 1331 985
          186 103 1290 1120 1654 1782
          1820 1655 822 1550 175 975
          45 86 258 1105 1332 1333
          592 190 1081 478 1658 974
          1385 272 1537 714 1659 1106
          489 721 977 15 1660 968
          1218 345 1663 106 1763 1107
          1083 1729 1220 1539 1694 438
          1084 987 346 1696 955 1360
          811 838 954 285 348 1540
          1295 1221 1695 979 1108 420
          279 1552 1086 48 261 1336
          1316 1836 470 1541 1315 1298
          1047 1795 427 781 428 638
          1667 180 980 727 431 94
          22 971 378 1554 1741 584
          473 615 1210 1557 634 53
          981 1671 1303 1096 1300 1211
          982 222 1223 728 1375 1342
          1404 250 542 1377 1673 55
          1569 1304 1837 1674 798 1798
          617 1232 1677 1799 1681 1775
          831 729 424 1306 1307 1382
          990 1840 60 1679 1708 1680
          31 1381 1572 1127 961 820
          351 622 1821 550 1684 1099
          379 984 624 789 1350 821
          223 1685 1128 1100 492 342
          1780 590 1715 766 1547 1228
          1102 1829 44 1355 2 1371
          1687 1573 1830 1781 465 499
          3 477 246 1216 636 1783
          1804 1785 976 973 986 1398
          1334 1356 547 1229 854 1551
          1230 1564 1691 847 852 1123
          1807 1838 1734 978 1217 1312
          1357 543 1727 724 1050 1693
          89 554 640 90 1770 1051
          88 1809 1109 1735 1132 362
          1738 552 179 481 227 780
          1769 1698 1313 1567 349 829
          1566 1817 187 596 597 263
          1124 1700 1236 612 92 1556
          1125 194 1796 54 1338 1322
          1577 1320 1542 1576 264 1095
          1237 614 1558 733 1773 119
          1126 1752 485 1675 1213 785
          1578 1583 496 849 1561 1225
          1703 1713 167 799 33 629
          1560 1579 188 551 337 1387
          787 276 1812 1308 736 1402
          1101 1562 114 607 1239 493
          243 737 1103 1119 1214 1759
          361 46 115 1121 1585 1122
          1758 609 176 177 1718 804
          1726 11 437 1129 164 47
          12 730 642 162 1581 260
          1219 480 1234 1390 1335 50
          104 377 1736 1060 1198 191
          1737 1565 839 356 355 1222
          626 490 731 1771 816 1112
          1319 1111 1740 1568 1746 725
          1340 611 814 600 252 286
          1323 1374 1344 853 726 998
          1231 1362 439 56 1364 474
          856 1115 432 195 832 1380
          1571 817 1819 846 230 111
          1327 1774 1779 256 735 359
          500 1754 845 1776 1710 59
          1801 277 1226 1347 371 1054
          112 1349 1227 1348 1388 184
          1369 836 1133 1563 487 498
          259 997 488 1240 1784 1389
          1814 360 639 436 1724 805
          1403 1788 1789 1790 1574 1728
          116 1241 1056 809 1764 421
          1575 1048 1732 1765 632 368
          610 723 363 1768 1791 848
          1358 494 364 1235 1400 855
          992 118 495 1743 627 23
          1339 616 1587 265 1745 988
          1378 613 1839 844 1361 641
          1749 628 620 1588 618 267
          1052 121 1368 1366 993 1778
          1835 989 58 1841 1580 1384
          630 1233 491 1584 995 1755
          1756 1351 1352 1055 857 189
          366 367 375 43 823 1354
          429 42 824 996 1787 1762
          738 858 1766 810 1130 1792
          851 1794 178 1131 1242 1772
          274 1586 1373 117 732 813
          369 1392 1376 1135 52 1134
          549 1582 1363 1843 734 1818
          1365 833 1800 553 372 374
          435 1802 834 1777 1238 1407
          1803 1243 835 739 282 991
          825 1786 1806 1372 1589 1793
          1808 430 1816 1810 840 830
          280 1391 1379 635 994 1811
          1136 1383 1057 843 842 631
          1805 1813 1815 1386 1842 633
          1797 440 1393 1408 662 124
          1517 679 316 122 123 1450
          288 1883 1412 414 1855 885
          1073 901 294 872 865 1895
          650 1201 1414 651 1420 669
          673 329 670 135 1445 330
          1518 1869 2031 674 1446 1447
          312 138 1915 1909 390 677
          142 696 645 291 894 236
          1846 1138 125 209 647 648
          1882 1067 1244 1844 664 893
          1000 1259 449 1410 999 1139
          1590 884 9 317 649 1431
          153 290 1923 381 646 1924
          303 324 1432 1002 515 1850
          896 1885 1140 1592 1854 10
          516 1141 1527 1890 2021 866
          665 943 864 1246 900 556
          382 1595 1143 741 505 2016
          1003 1858 385 1413 1857 1935
          442 2017 1892 19 1859 886
          666 147 2024 169 867 127
          887 870 708 293 1145 868
          557 1480 871 392 1146 319
          561 1897 1937 1862 68 1458
          1434 1861 1415 1525 26 1005
          507 30 743 890 1148 1063
          876 1900 1898 1006 1018 1417
          653 875 908 1899 1940 149
          340 295 562 1865 403 1943
          654 388 1248 1462 232 1438
          133 1464 204 148 239 1520
          308 1149 1422 1007 150 172
          1466 1008 1423 1418 1442 508
          520 672 656 1902 1944 759
          77 563 2015 658 1150 1946
          1009 1875 521 321 1010 80
          446 1905 300 690 1151 448
          2019 160 1601 1913 877 1907
          1876 396 1602 879 1910 912
          1251 299 1914 1603 881 1916
          314 694 1013 676 1179 137
          911 235 301 675 141 1879
          39 333 240 1449 1474 197
          643 523 1526 1523 644 1245
          503 1918 391 1137 1591 555
          1166 1881 1953 1954 1849 1452
          1260 1430 198 1023 860 1024
          2014 862 930 1606 1015 18
          145 565 131 1593 899 1894
          1016 1932 20 888 215 1454
          1247 869 904 931 214 1004
          905 1153 1017 461 920 238
          921 1154 1456 1611 71 1610
          1171 1436 1072 506 216 2025
          2018 1435 652 709 1863 1155
          395 408 1612 451 454 29
          1496 1614 136 1020 1616 1941
          1866 1421 1463 705 1249 1030
          1254 1439 75 2026 509 1600
          327 297 1158 1528 1441 233
          1522 657 1250 2027 1871 744
          205 1627 1904 411 1177 1159
          1266 140 659 1257 1488 1594
          1178 447 1426 1491 40 1031
          1912 2020 1188 81 37 341
          883 512 1492 234 660 208
          380 1451 895 1845 748 1165
          861 501 441 1476 504 513
          2013 1847 143 1001 1548 502
          1848 1181 915 1014 2033 1021
          7 1033 65 126 292 1022
          1920 219 1851 304 663 1922
          1852 213 1142 863 1853 1271
          947 318 740 1608 1889 1607
          2022 747 1926 919 1956 1888
          170 1856 1960 67 526 383
          146 711 1144 339 560 1596
          750 1457 1065 1453 1169 384
          1860 742 231 1263 1609 386
          69 331 1147 443 1495 558
          325 1027 889 1265 1598 210
          203 1437 1864 1599 758 134
          27 1028 1174 416 751 171
          1019 1253 1968 519 73 686
          1440 1617 1255 217 1499 1419
          1281 2005 1868 1443 1274 296
          1626 1991 1175 891 1187 688
          218 1872 1906 1874 1992 1467
          1502 1621 1160 1873 755 934
          206 1011 878 1877 1994 2037
          458 1037 1973 700 2029 913
          1950 692 745 1878 693 1640
          695 315 567 1997 1012 417
          1511 1622 914 1161 1189 79
          1506 529 139 1427 1428 1152
          1163 534 859 64 1270 1975
          746 1629 530 289 1258 1411
          1978 1167 514 1974 1976 536
          1884 8 1604 1630 707 1605
          564 1927 1272 1887 756 940
          1184 338 1273 1931 945 1168
          1633 1262 168 1891 1930 2000
          1278 306 1893 1963 1928 1481
          128 1988 130 1508 1170 1455
          1933 237 400 1934 569 1279
          932 1966 1193 518 1264 1896
          307 1252 387 1416 922 450
          1597 667 668 874 445 309
          1613 1967 753 1185 2012 1465
          683 1156 1186 1989 74 655
          1615 1867 1901 946 1636 1521
          1029 310 1157 559 1498 685
          1618 1945 1619 1870 1424 159
          1176 1903 1425 1503 1267 457
          924 1275 1620 1448 942 1638
          173 1908 1948 302 892 38
          1471 456 389 1032 880 322
          1269 1276 1911 1162 1949 1623
          661 678 154 1478 1409 399
          1880 1624 763 1164 1429 1180
          1919 1952 1194 155 66 6
          524 1182 1477 1183 1034 1045
          1886 199 1433 62 680 710
          525 897 1479 16 460 2023
          1190 1025 713 1958 2010 1261
          1936 129 517 1064 1634 1062
          401 1962 2002 144 415 202
          571 1200 402 394 873 1519
          697 1061 2011 1529 1461 1939
          527 1625 1460 1459 1942 909
          1173 682 907 1530 1635 671
          298 132 687 1046 510 1485
          1444 1256 332 754 72 1642
          712 76 1489 455 925 511
          522 910 1066 939 241 1947
          1490 151 1972 1644 533 1628
          537 78 938 323 211 1268
          1469 568 409 882 152 1068
          1645 762 1470 1510 1472 1473
          1493 929 2032 1283 1475 1951
          1044 1977 305 1917 1921 1277
          398 898 1982 1983 1631 1925
          1632 1984 156 764 17 1959
          1070 1961 902 1957 903 1074
          1929 444 406 201 749 703
          1035 941 1192 1965 393 2030
          948 757 1938 1280 532 2004
          698 1172 906 28 1501 1196
          1641 1483 311 1482 684 937
          1516 1486 699 949 1042 1041
          1993 2028 689 313 691 1969
          1971 761 1970 1509 1637 397
          1639 1468 36 1038 701 528
          1531 1043 1282 1069 212 950
          413 405 1286 1039 63 1513
          916 1979 917 459 535 918
          1981 1955 200 2009 1284 951
          1026 1524 1985 1986 944 2001
          681 1191 70 531 1964 1285
          320 1040 157 158 407 1990
          2036 1195 566 752 1036 1647
          1487 760 161 926 2007 1505
          1643 412 1996 927 1995 207
          1512 404 928 765 452 328
          1494 1646 1987 2034 453 2003
          1497 923 326 463 1484 462
          706 570 1504 410 2035 2006
          1197 1071 1507 1998 936 1999
          702 1980 1515 933 1514 704
          1500 2008 935
        </DataArray>
        <DataArray type="Int32" Name="type" format="ascii" RangeMin="1" RangeMax="2">
          2 2 2 2 2 2
          2 2 2 2 2 2
          2 2 2 2 2 2
          2 2 2 2 2 2
          2 2 2 2 2 2
          2 2 2 2 2 2
          2 2 2 2 2 2
          2 2 1 2 1 2
          2 2 2 1 2 2
          2 2 2 2 1 2
          2 1 1 2 2 1
          1 2 2 2 1 2
          2 1 2 2 1 2
          2 2 1 1 2 2
          2 2 2 2 2 2
          2 1 1 2 2 2
          1 1 1 2 2 2
          2 2 1 2 1 2
          1 1 1 2 1 2
          1 2 2 2 2 1
          2 2 1 2 2 2
          2 2 2 2 2 2
          1 2 1 2 2 1
          2 1 2 2 2 2
          1 2 1 1 1 2
          2 1 1 1 2 2
          1 1 1 2 1 2
          2 2 2 2 2 2
          2 2 1 1 1 2
          2 2 2 2 2 2
          1 1 2 1 2 2
          1 2 1 1 2 2
          2 1 2 1 2 2
          1 2 2 2 2 1
          2 2 1 2 1 1
          1 1 2 1 2 2
          2 2 1 2 1 2
          1 1 1 2 2 2
          2 2 2 2 1 2
          2 2 1 2 1 2
          2 2 2 2 1 1
          2 2 1 1 2 2
          2 2 2 2 2 2
          2 1 2 1 1 1
          1 2 1 2 1 1
          2 1 1 1 2 1
          2 2 1 2 2 2
          2 2 2 2 1 2
          2 1 2 2 1 1
          2 2 1 1 2 2
          2 1 2 1 2 1
          2 2 2 2 1 1
          1 1 2 2 1 2
          2 1 1 1 1 1
          2 2 2 2 2 2
          2 1 1 2 1 2
          1 2 1 2 2 2
          1 1 1 2 2 1
          2 1 2 2 1 2
          2 1 1 1 2 1
          2 1 2 1 2 1
          1 1 2 2 2 1
          1 1 1 1 1 2
          2 1 1 2 2 1
          1 1 2 2 1 1
          1 2 2 2 1 2
          1 2 1 2 2 1
          1 2 2 1 2 2
          2 2 2 1 1 1
          1 2 2 1 2 2
          2 1 1 1 2 1
          2 2 1 1 2 1
          1 1 1 1 2 1
          1 2 2 2 2 1
          1 2 1 1 2 1
          1 1 2 2 1 2
          2 2 1 2 2 1
          2 1 2 1 1 1
          2 1 1 1 2 2
          2 2 1 1 2 2
          2 2 1 2 1 2
          2 1 1 1 1 2
          1 1 2 1 2 2
          1 2 1 1 2 1
          1 2 2 1 2 1
          1 1 1 1 2 2
          2 2 1 2 2 1
          1 2 2 2 2 2
          2 1 2 2 2 2
          2 1 1 2 2 2
          1 2 1 2 2 2
          1 2 1 1 1 2
          2 2 2 1 2 1
          2 1 2 2 2 2
          1 2 1 1 1 2
          2 2 2 2 1 1
          1 2 1 2 1 2
          2 1 2 2 1 1
          1 1 2 1 2 2
          2 2 1 1 1 2
          2 2 1 1 2 1
          1 1 2 2 2 1
          2 2 2 1 1 2
          2 1 2 1 2 2
          2 1 2 2 2 2
          2 2 1 2 1 2
          2 1 1 1 1 2
          2 2 2 1 2 2
          1 2 1 2 2 2
          1 2 1 2 2 1
          1 1 2 1 2 2
          1 2 1 1 2 1
          1 2 1 1 2 2
          1 2 1 2 1 2
          1 1 1 2 1 1
          2 2 1 2 1 2
          1 1 1 1 1 2
          2 2 2 2 1 2
          1 1 2 2 1 1
          2 1 1 1 1 2
          2 1 2 1 1 1
          2 2 1 1 2 2
          2 1 1 1 1 1
          1 1 2 1 1 2
          1 1 1 2 2 1
          2 2 2 2 2 1
          2 1 2 2 2 1
          2 1 1 2 2 1
          2 1 2 1 2 1
          2 2 2 2 2 2
          2 2 2 2 1 1
          1 2 1 1 2 1
          2 1 1 1 2 2
          1 2 2 2 1 2
          2 2 2 2 1 2
          1 2 2 2 2 1
          2 2 1 2 2 2
          2 2 1 2 2 1
          2 2 1 1 1 1
          2 1 1 1 2 2
          2 2 2 1 2 2
          2 2 2 2 1 2
          2 1 2 2 2 1
          1 2 2 2 2 2
          2 1 2 2 2 2
          2 1 2 1 2 2
          1 2 1 2 2 1
          2 2 1 2 2 1
          2 2 2 2 2 2
          2 2 2 1 2 2
          2 2 2 2 1 2
          2 1 1 2 1 2
          2 1 1 1 1 2
          2 2 2 2 2 1
          2 2 2 1 2 2
          1 1 2 1 2 2
          1 2 2 2 1 2
          2 2 1 1 1 2
          2 1 2 2 1 2
          2 2 2 1 1 1
          1 1 2 2 1 2
          2 2 2 1 2 2
          1 2 2 2 1 2
          2 1 2 1 2 1
          2 2 2 2 1 2
          2 1 2 2 2 2
          2 2 2 2 1 2
          1 2 2 2 2 2
          2 2 2 2 2 2
          2 1 2 2 2 2
          2 2 2 2 2 2
          2 2 2 2 2 2
          2 2 2 2 2 2
          2 2 2 2 2 2
          2 2 2 2 2 2
          2 2 2 2 2 2
          2 2 2 2 2 2
          2 2 2 2 2 1
          2 1 2 1 2 2
          2 2 1 2 2 2
          1 1 1 2 1 1
          1 2 1 2 2 2
          2 2 2 2 2 2
          2 2 2 1 1 2
          2 2 1 1 2 1
          1 1 2 2 2 2
          2 2 2 1 2 1
          2 1 1 1 1 2
          1 2 2 2 2 2
          1 2 2 1 2 2
          2 2 2 1 2 2
          2 2 2 2 1 2
          1 2 2 2 1 2
          1 2 2 2 1 2
          2 2 2 2 1 1
          1 1 1 2 1 2
          2 2 2 1 1 2
          2 2 2 2 2 2
          1 2 1 2 2 2
          2 2 1 2 1 2
          2 2 1 2 1 2
          2 1 2 1 2 1
          2 1 2 2 2 1
          1 2 2 2 2 1
          1 1 2 2 1 2
          1 2 1 2 1 1
          1 2 2 2 1 1
          2 2 1 2 2 2
          2 2 1 2 2 2
          1 2 2 1 2 2
          2 2 1 2 1 2
          2 1 2 2 2 2
          1 2 1 2 2 1
          2 1 2 2 2 1
          1 2 2 1 1 1
          1 2 2 2 2 2
          1 2 1 1 2 1
          2 2 2 1 1 1
          2 1 2 1 2 2
          1 2 1 2 1 2
          1 2 2 2 1 1
          2 1 1 1 2 1
          2 1 2 1 1 1
          1 2 2 1 1 2
          2 2 2 2 2 1
          2 2 1 1 1 1
          2 1 2 1 1 2
          2 2 2 2 1 1
          1 2 1 2 1 1
          2 2 1 2 2 1
          2 2 1 2 2 1
          1 1 2 2 1 1
          1 2 2 1 2 1
          1 1 2 2 1 1
          2 2 1 1 1 1
          2 1 2 1 2 1
          2 2 2 2 1 1
          2 1 1 2 1 1
          2 2 2 1 1 1
          2 1 2 1 2 1
          1 1 1 2 2 1
          2 1 2 2 2 2
          2 1 1 2 2 1
          2 2 1 1 2 1
          2 1 2 2 2 2
          1 2 2 1 1 2
          2 2 1 1 1 1
          1 2 2 2 1 2
          2 1 1 1 1 2
          1 2 1 1 2 1
          2 1 2 1 1 1
          1 2 2 1 1 2
          1 1 1 2 1 1
          1 1 2 1 1 2
          2 1 1 1 2 2
          1 2 2 2 1 2
          1 2 1 2 1 2
          1 2 2 2 2 2
          2 1 1 2 1 2
          1 1 2 2 2 2
          1 1 2 2 2 2
          2 2 1 2 2 1
          2 2 1 2 1 2
          2 1 2 1 1 1
          2 1 2 2 2 1
          1 1 2 1 1 2
          1 1 1 2 1 2
          2 1 1 2 2 1
          2 1 1 1 2 1
          1 2 1 2 1 2
          1 1 1 2 2 1
          1 1 1 2 2 2
          1 2 2 2 2 2
          2 2 2 2 1 2
          2 1 2 2 1 1
          2 2 1 1 1 2
          2 1 2 2 2 1
          1 2 2 2 1 2
          1 2 1 1 2 2
          2 1 1 2 1 2
          1 2 2 2 1 2
          1 2 1 1 2 2
          1 2 1 2 2 2
          1 2 2 2 1 1
          2 1 1 2 2 1
          1 2 2 2 2 1
          2 1 2 1 2 2
          1 1 2 1 2 1
          2 2 2 2 2 2
          2 1 1 1 2 1
          2 2 1 2 1 1
          1 1 2 1 1 1
          2 1 2 1 2 2
          1 2 2 1 1 2
          1 1 2 2 2 1
          2 2 1 2 1 2
          2 2 2 2 2 1
          1 2 2 2 2 2
          2 2 2 2 2 2
          1 1 2 2 2 2
          1 2 2 2 1 2
          2 2 2 1 1 2
          2 1 2 1 1 1
          2 1 2 1 2 1
          1 2 2 2 1 2
          2 2 2 1 1 1
          1 1 2 2 1 1
          2 1 2 2 2 2
          1 1 2 2 2 2
          2 2 2 1 2 2
          1 2 2 2 2 1
          2 2 2 2 1 2
          1 2 2 1 1 2
          2 2 2 2 2 2
          2 1 2 1 1 2
          1 2 1 2 2 2
          2 1 2 1 1 2
          2 1 2 1 2 1
          1 2 2 2 2 2
          2 2 2 2 1 1
          2 2 2 2 2 2
          2 1 2 2 1 2
          1 2 1 1 2 1
          2 1 1 2 1 2
          2 2 1 1 1 2
          2 2 2 1 1 2
          2 2 1 2 1 2
          1 2 2 2 2 2
          2 1 1 1 2 1
          2 1 2 2 2 2
          2 1 1 1 1 1
          2 1 2 2 2 2
          1 2 2 2 2 1
          2 2 2 1 1 2
          2 1 2 2 1 2
          2 2 2 1 2 1
          2 1 2 2 2 2
          1 2 2 2 2 2
          2 2 2 2 2 2
          2 2 2
        </DataArray>
        <DataArray type="Float64" Name="diameter" format="ascii" RangeMin="1e-08" RangeMax="1.4476930956e-06">
          9.4542530492e-07 9.678657077e-07 9.5085237594e-07 9.8860650279e-07 9.0835916874e-07 9.9189846529e-07
          9.8233943758e-07 9.8414713246e-07 9.715524397e-07 9.4854282546e-07 9.5059422954e-07 8.8261189564e-07
          9.1101886258e-07 9.9476760329e-07 9.9705710189e-07 9.1842790499e-07 8.8625267294e-07 9.728447816e-07
          8.9841000504e-07 9.7140777258e-07 9.5555113602e-07 9.3279218123e-07 9.825022977e-07 8.7993740685e-07
          9.4682193578e-07 9.788721875e-07 9.7546075303e-07 9.7927902802e-07 9.5409406191e-07 9.6038892154e-07
          8.6831639376e-07 9.1440659476e-07 8.8215968593e-07 9.7375649345e-07 9.1706204048e-07 9.6195805266e-07
          9.1579943976e-07 9.6289683937e-07 8.8837880569e-07 9.697026431e-07 9.6589549888e-07 1.0071930994e-06
          1.0009307275e-06 9.4784295095e-07 1.3054412523e-06 1.125635799e-06 1.2788080423e-06 1.087228007e-06
          1.1118411382e-06 9.8587442017e-07 9.6881621086e-07 1.2940136103e-06 1.0239346381e-06 1.0766551304e-06
          1.0187435844e-06 1.0862921148e-06 1.092219918e-06 1.0828356058e-06 1.2059515943e-06 8.4720406531e-07
          1.1208196512e-06 1.4086330047e-06 1.2753936823e-06 1.097114573e-06 1.0546474363e-06 1.2321918359e-06
          1.3197491088e-06 9.3571743961e-07 1.0561127024e-06 1.0465505188e-06 1.3553737228e-06 1.0278246353e-06
          9.4515977074e-07 1.3670230616e-06 1.0887222366e-06 1.0001344625e-06 1.3648876592e-06 1.0883746207e-06
          1.0462906681e-06 9.6861603173e-07 1.1905701836e-06 1.1718900511e-06 1.0196281944e-06 1.0863786809e-06
          1.048261679e-06 1.1266945015e-06 1.021853261e-06 1.018579138e-06 1.2099541169e-06 1.0356681015e-06
          1.0316458523e-06 1.260789988e-06 1.4377783334e-06 1.1953408773e-06 1.0504924281e-06 1.1103416003e-06
          1.4111777794e-06 1.3617550616e-06 1.3169847672e-06 1.1654887033e-06 9.9373648991e-07 1.194104833e-06
          9.9472780785e-07 1.0069656571e-06 1.2232643588e-06 1.1484748911e-06 1.4091706142e-06 1.0816532495e-06
          1.2438194062e-06 1.3290564263e-06 1.2906528121e-06 9.3265652948e-07 1.1894341584e-06 1.0592778178e-06
          1.4348841193e-06 1.1503584622e-06 1.0670989985e-06 1.0173773226e-06 1.0052152459e-06 1.4034377098e-06
          1.1439918102e-06 1.1316735799e-06 1.1806623007e-06 1.0268386787e-06 1.0191840606e-06 1.0185954383e-06
          1.0657978014e-06 1.0046064486e-06 1.0240167292e-06 1.0699881115e-06 1.1067870991e-06 1.0416215406e-06
          1.3477300555e-06 1.0137055196e-06 1.4453718195e-06 1.0092384864e-06 1.0657540817e-06 1.3146623299e-06
          8.7423288732e-07 1.1997214082e-06 1.0854360112e-06 1.0822076046e-06 1.1404309633e-06 1.0080914414e-06
          1.4164086113e-06 1.1346851857e-06 1.2739982628e-06 1.4022233033e-06 1.2127996159e-06 1.0361238568e-06
          1.1381386591e-06 1.4436929678e-06 1.2222408701e-06 1.4151525464e-06 1.1283319635e-06 1.2069698734e-06
          1.3801263363e-06 1.3901992599e-06 1.4027729547e-06 1.0156901857e-06 1.2155724011e-06 1.013838138e-06
          1.0195863333e-06 1.038620802e-06 1.0241986289e-06 1.0438356965e-06 1.0847101105e-06 1.0523211004e-06
          1.0612501433e-06 1.0451153303e-06 1.1814563706e-06 1.2107998966e-06 1.2329010387e-06 1.187190584e-06
          1.0419832648e-06 1.0057554803e-06 9.4057032907e-07 1.0082613589e-06 1.0246633056e-06 1.0623342234e-06
          1.2986734683e-06 1.4096419814e-06 9.3307942274e-07 1.2459662526e-06 1.0235675025e-06 9.5490950596e-07
          1.2995001261e-06 1.0912883056e-06 1.3855812562e-06 1.15177628e-06 1.0711627896e-06 1.0943314225e-06
          9.7774413334e-07 1.2648724811e-06 1.0130012539e-06 1.4212403887e-06 1.0932120216e-06 9.5628920566e-07
          1.3951264948e-06 1.1194784022e-06 1.0263198559e-06 1.0944356945e-06 1.0173647559e-06 1.2720672373e-06
          1.0271264604e-06 1.0450328276e-06 1.3653310438e-06 1.1194863215e-06 1.3970241747e-06 1.286655957e-06
          1.2903252609e-06 1.3646286465e-06 9.9409551385e-07 1.2167658073e-06 9.3640112578e-07 1.0918813781e-06
          1.0479719536e-06 1.0620171308e-06 1.2437161642e-06 1.0583694313e-06 1.3372091549e-06 1.0813594873e-06
          1.4039817447e-06 1.4404838149e-06 1.115722107e-06 8.4233976965e-07 1.0643226751e-06 1.0069622e-06
          9.8610939898e-07 9.9840923824e-07 1.0122714657e-06 1.0739554526e-06 1.2265530346e-06 1.0668401373e-06
          1.015837307e-06 1.0209812467e-06 1.2002074731e-06 1.1030104448e-06 1.2794596137e-06 1.1375645191e-06
          1.0140088727e-06 1.1398913915e-06 1.0340395037e-06 1.0484153911e-06 1.2844350313e-06 1.3754139315e-06
          1.0418500738e-06 1.0123162462e-06 1.3533634208e-06 1.2381822973e-06 1.1907171467e-06 1.0182729696e-06
          1.1973448909e-06 9.9846211777e-07 1.0267495837e-06 1.0421725816e-06 1.1672564256e-06 1.0875727202e-06
          9.4117230659e-07 1.2304223055e-06 1.0669876828e-06 1.2039753147e-06 1.3058967748e-06 1.2501012022e-06
          1.385183829e-06 1.0663301995e-06 1.3647502808e-06 1.1264152615e-06 1.3124310566e-06 1.2519172278e-06
          1e-08 1.3680980266e-06 1.2697121312e-06 1.257164326e-06 1.0710766974e-06 1.1330829982e-06
          9.4656429373e-07 1.0294943924e-06 1.3378417031e-06 1.0364220876e-06 1.072193496e-06 1.0629629048e-06
          1.1139127696e-06 1.0477022976e-06 9.2582753585e-07 8.6068126079e-07 1.3459327384e-06 9.8403804306e-07
          8.7687943149e-07 1.1731456668e-06 8.6333015052e-07 9.980032745e-07 1.2304802594e-06 1.2620708037e-06
          1.0506127896e-06 1.0063891278e-06 1.4409787463e-06 1.3983131608e-06 1.1836509104e-06 9.5024286309e-07
          1.0004659895e-06 1.1767921921e-06 1.0286530954e-06 1.1588767409e-06 1.1546368457e-06 1.2407060421e-06
          1.0402017684e-06 1.0679161691e-06 1.0258823793e-06 1.0802168144e-06 1.3092740835e-06 1.2142805864e-06
          1.2190144529e-06 1.2854656937e-06 9.5662400441e-07 9.3073060452e-07 1.4297886378e-06 9.3093976523e-07
          8.9696233651e-07 1.2757167221e-06 1.32625692e-06 1.4160975108e-06 1.4025493929e-06 1.1538481425e-06
          1.0841457486e-06 9.9493651806e-07 1.1302617965e-06 1.0553404719e-06 1.0585205092e-06 1.1386011835e-06
          9.6358028585e-07 1.3498392511e-06 1.3757979861e-06 1.0705364682e-06 1.3675626525e-06 9.2231114497e-07
          1.3875372853e-06 1.01744109e-06 1.2085516866e-06 1.1913050413e-06 1.0379257789e-06 1.0513266151e-06
          1.2271360174e-06 1.3266473614e-06 1.2932685496e-06 9.8054661271e-07 1.0873960484e-06 1.2311844291e-06
          9.1812160655e-07 1.3195010978e-06 1.1683941867e-06 1.0536339166e-06 1.363268569e-06 1.0788065314e-06
          1.0375967182e-06 1.2896641046e-06 1.3217412398e-06 1.2270947044e-06 1.1022763523e-06 1.3672988629e-06
          1.128205881e-06 1.1283984866e-06 9.6538159196e-07 1.3827790348e-06 1.1804313992e-06 1.3221798942e-06
          1.1873589956e-06 1.2670359902e-06 9.4013081788e-07 1.1651362715e-06 1.0211958143e-06 1.1976160514e-06
          1.3560280457e-06 1.1775580979e-06 1.3364915773e-06 1.2881570907e-06 1.2609328814e-06 1.1783871837e-06
          1.087221585e-06 1.1268272297e-06 1.4221740756e-06 9.9025186933e-07 1.0211361639e-06 1.0993520768e-06
          1.2145634187e-06 1.2805775323e-06 9.7990434319e-07 9.6268349623e-07 1.3911162142e-06 1.3664001129e-06
          1.1933903738e-06 9.6543222972e-07 1.1737581541e-06 1.0362897294e-06 1.294172734e-06 1.1114005366e-06
          1.4147929795e-06 1.0749624959e-06 1.13706294e-06 1.0832156435e-06 9.8633292213e-07 1.2344366439e-06
          1.3719171556e-06 1.0138658038e-06 9.6801085582e-07 1.3581591191e-06 1.074348238e-06 1.1035156964e-06
          9.600351384e-07 9.9197201801e-07 1.0089320951e-06 1.1304146878e-06 1.187900629e-06 1.3938555346e-06
          1.364863091e-06 9.5850015835e-07 1.0592036313e-06 1.2345677344e-06 1.1184989453e-06 1.1104540237e-06
          1.0004976517e-06 1.3059053072e-06 1.3540001049e-06 1.2898022582e-06 1.0783811854e-06 1.4314310214e-06
          1.0534336103e-06 1.0576517238e-06 1.2555220885e-06 1.1376376301e-06 9.4886744643e-07 1.3087662841e-06
          1.3790884211e-06 1.1252993204e-06 1.3987154681e-06 1.3202785337e-06 1.0820882804e-06 1.4165437096e-06
          1.2647113856e-06 1.1297584817e-06 1.0683746258e-06 8.7384008405e-07 1.0443780361e-06 1.2759434717e-06
          1.3014444705e-06 1.0496090199e-06 1.2474408923e-06 1.2280137625e-06 9.0351869931e-07 1.3104033243e-06
          1.3126443248e-06 1.3965712828e-06 9.3173628595e-07 1.0041962633e-06 1.314166104e-06 1.1587798308e-06
          1.0368046519e-06 1.0017014543e-06 1.3679317894e-06 9.1215564607e-07 1.0373631947e-06 1.1501334698e-06
          1.0064128287e-06 1.310607745e-06 8.9748878582e-07 1.229329929e-06 1.4322352696e-06 1.434578249e-06
          1.0316829107e-06 1.1716884867e-06 1.3669186029e-06 1.3872354685e-06 1.0175985183e-06 8.9556771861e-07
          1.1089805619e-06 9.5232381728e-07 1.1468450891e-06 1.1442633906e-06 1.1417720664e-06 1.1198586909e-06
          8.5514866525e-07 1.1401668746e-06 1.2248143964e-06 1.1485353562e-06 1.3229572772e-06 9.128439619e-07
          1.076956707e-06 1.3287671329e-06 1.1598335066e-06 1.2256279798e-06 1.0898300956e-06 9.2273851753e-07
          1.3717777021e-06 1.3846061628e-06 9.9725013528e-07 1.283047188e-06 1.1011870354e-06 9.82620605e-07
          1.377046725e-06 8.9378063594e-07 1.305386308e-06 1.2386610925e-06 1.042704457e-06 1.3236199918e-06
          1.4428243586e-06 1.1208243551e-06 1.0722429041e-06 1.2600902354e-06 1.0713988655e-06 1.3235155948e-06