ITEM: TIMESTEP
0
ITEM: NUMBER OF ATOMS
41
ITEM: BOX BOUNDS pp pp ff
0.0000000000000000e+00 1.0000000000000000e-04
0.0000000000000000e+00 4.0000000000000003e-05
0.0000000000000000e+00 1.0000000000000000e-04
ITEM: ATOMS id type diameter x y z 
1 1 1e-06 5e-06 5e-06 1e-06 
41 2 1e-08 6e-06 5e-06 1e-06 
2 1 1e-06 1.5e-05 5e-06 1e-06 
3 1 1e-06 2.5e-05 5e-06 1e-06 
4 1 1e-06 3.5e-05 5e-06 1e-06 
5 1 1e-06 4.5e-05 5e-06 1e-06 
11 1 1e-06 5e-06 1.5e-05 1e-06 
12 1 1e-06 1.5e-05 1.5e-05 1e-06 
13 1 1e-06 2.5e-05 1.5e-05 1e-06 
14 1 1e-06 3.5e-05 1.5e-05 1e-06 
15 1 1e-06 4.5e-05 1.5e-05 1e-06 
21 1 1e-06 5e-06 2.5e-05 1e-06 
22 1 1e-06 1.5e-05 2.5e-05 1e-06 
23 1 1e-06 2.5e-05 2.5e-05 1e-06 
24 1 1e-06 3.5e-05 2.5e-05 1e-06 
25 1 1e-06 4.5e-05 2.5e-05 1e-06 
31 1 1e-06 5e-06 3.5e-05 1e-06 
32 1 1e-06 1.5e-05 3.5e-05 1e-06 
33 1 1e-06 2.5e-05 3.5e-05 1e-06 
34 1 1e-06 3.5e-05 3.5e-05 1e-06 
35 1 1e-06 4.5e-05 3.5e-05 1e-06 
6 1 1e-06 5.5e-05 5e-06 1e-06 
7 1 1e-06 6.5e-05 5e-06 1e-06 
8 1 1e-06 7.5e-05 5e-06 1e-06 
9 1 1e-06 8.5e-05 5e-06 1e-06 
10 1 1e-06 9.5e-05 5e-06 1e-06 
16 1 1e-06 5.5e-05 1.5e-05 1e-06 
17 1 1e-06 6.5e-05 1.5e-05 1e-06 
18 1 1e-06 7.5e-05 1.5e-05 1e-06 
19 1 1e-06 8.5e-05 1.5e-05 1e-06 
20 1 1e-06 9.5e-05 1.5e-05 1e-06 
26 1 1e-06 5.5e-05 2.5e-05 1e-06 
27 1 1e-06 6.5e-05 2.5e-05 1e-06 
28 1 1e-06 7.5e-05 2.5e-05 1e-06 
29 1 1e-06 8.5e-05 2.5e-05 1e-06 
30 1 1e-06 9.5e-05 2.5e-05 1e-06 
36 1 1e-06 5.5e-05 3.5e-05 1e-06 
37 1 1e-06 6.5e-05 3.5e-05 1e-06 
38 1 1e-06 7.5e-05 3.5e-05 1e-06 
39 1 1e-06 8.5e-05 3.5e-05 1e-06 
40 1 1e-06 9.5e-05 3.5e-05 1e-06 
ITEM: TIMESTEP
1000
ITEM: NUMBER OF ATOMS
219
ITEM: BOX BOUNDS pp pp ff
0.0000000000000000e+00 1.0000000000000000e-04
0.0000000000000000e+00 4.0000000000000003e-05
0.0000000000000000e+00 1.0000000000000000e-04
ITEM: ATOMS id type diameter x y z 
84 2 9.67866e-07 2.56849e-05 3.84511e-06 4.88656e-07 
82 2 9.88607e-07 3.81656e-06 4.23018e-06 4.96607e-07 
83 2 9.82339e-07 1.46732e-05 4.86614e-06 4.96688e-07 
95 2 9.60389e-07 2.36013e-05 2.55681e-05 4.82915e-07 
98 2 9.62897e-07 5.83344e-06 3.53219e-05 4.82394e-07 
101 2 9.98462e-07 3.36424e-05 3.61394e-05 4.99442e-07 
102 2 9.85874e-07 3.5678e-05 3.66227e-06 6.94624e-07 
85 2 1.02393e-06 3.49516e-05 4.36497e-06 5.16947e-07 
174 1 1.19536e-06 5.24698e-06 4.77641e-06 7.18868e-07 
44 1 1.12793e-06 2.429e-05 4.83151e-06 8.68785e-07 
175 1 1.25946e-06 2.56953e-05 4.67426e-06 7.6164e-07 
4 1 1.18318e-06 3.47186e-05 4.80567e-06 7.0719e-07 
186 1 1.1343e-06 3.61392e-05 4.61981e-06 8.22938e-07 
5 1 1.17162e-06 4.58853e-05 5.36543e-06 7.07222e-07 
113 2 1.03567e-06 4.95563e-06 6.02873e-06 8.85202e-07 
13 1 1.14092e-06 2.50652e-05 1.44887e-05 5.41641e-07 
164 1 1.26634e-06 3.39252e-05 1.41773e-05 6.93749e-07 
163 1 1.3034e-06 1.46954e-05 1.46855e-05 6.09689e-07 
87 2 1.06999e-06 2.36158e-05 1.48542e-05 6.86236e-07 
14 1 1.21792e-06 3.50314e-05 1.46494e-05 7.20321e-07 
15 1 1.11386e-06 4.41628e-05 1.45807e-05 6.77243e-07 
107 2 1.0186e-06 4.5396e-05 1.48174e-05 5.15397e-07 
47 1 1.24249e-06 4.86652e-06 1.50604e-05 7.52036e-07 
48 1 1.41427e-06 1.55746e-05 1.57562e-05 9.36049e-07 
180 1 1.16718e-06 1.54436e-05 2.38749e-05 6.97251e-07 
25 1 1.23809e-06 4.42746e-05 2.38836e-05 5.86807e-07 
24 1 1.14394e-06 3.50816e-05 2.43529e-05 6.84994e-07 
109 2 1.04384e-06 2.54773e-05 2.45752e-05 5.27836e-07 
52 1 1.39065e-06 5.03469e-06 2.50118e-05 6.49557e-07 
93 2 1.02466e-06 1.50723e-05 2.54208e-05 5.14309e-07 
108 2 1.04198e-06 3.56203e-05 2.53397e-05 5.45111e-07 
54 1 1.15739e-06 2.40815e-05 2.55125e-05 6.96479e-07 
55 1 1.44054e-06 3.44949e-05 2.56979e-05 7.81692e-07 
110 2 9.4057e-07 4.4214e-05 2.56223e-05 9.7168e-07 
60 1 1.19698e-06 3.48742e-05 3.44449e-05 7.20299e-07 
61 1 1.22634e-06 4.41518e-05 3.42865e-05 7.35251e-07 
32 1 1.43465e-06 1.44114e-05 3.49803e-05 6.876e-07 
57 1 1.40473e-06 4.70454e-06 3.53459e-05 6.65626e-07 
120 2 1.06432e-06 1.56005e-05 3.50619e-05 5.33738e-07 
183 1 1.24291e-06 2.53105e-05 3.5226e-05 7.5348e-07 
34 1 1.14673e-06 3.46724e-05 3.53599e-05 6.89669e-07 
97 2 1.03404e-06 4.44562e-05 3.56257e-05 5.20844e-07 
99 2 9.79904e-07 1.48842e-05 3.61021e-05 9.66212e-07 
1 1 1.16601e-06 4.42507e-06 4.84704e-06 1.28046e-06 
2 1 1.4433e-06 1.53927e-05 4.68775e-06 1.4041e-06 
41 2 1e-08 6e-06 5e-06 1e-06 
177 1 1.17154e-06 4.4967e-05 5.37409e-06 1.2317e-06 
46 1 1.22922e-06 4.5005e-05 5.05369e-06 1.25063e-06 
42 1 1.16813e-06 5.29036e-06 5.63935e-06 1.40055e-06 
176 1 1.18071e-06 3.39858e-05 5.9408e-06 1.02966e-06 
86 2 9.585e-07 4.44417e-05 5.63108e-06 1.31023e-06 
162 1 1.298e-06 2.44136e-05 1.44226e-05 1.4702e-06 
178 1 1.08718e-06 5.01507e-06 1.48869e-05 1.34227e-06 
49 1 1.42615e-06 2.51989e-05 1.55175e-05 1.39307e-06 
50 1 1.39853e-06 3.5501e-05 1.56133e-05 1.35604e-06 
51 1 1.1173e-06 4.50937e-05 1.55879e-05 1.07907e-06 
193 1 1.26876e-06 2.5593e-05 2.39622e-05 1.34143e-06 
22 1 1.11627e-06 1.47621e-05 2.475e-05 1.21047e-06 
53 1 1.19312e-06 1.52213e-05 2.46791e-05 1.40716e-06 
96 2 9.6358e-07 3.39698e-05 2.47294e-05 1.19367e-06 
165 1 1.22634e-06 4.49776e-05 2.46319e-05 1.09451e-06 
181 1 1.14573e-06 2.53804e-05 2.54626e-05 1.04491e-06 
56 1 1.41471e-06 4.54237e-05 2.57829e-05 1.34431e-06 
195 1 1.2928e-06 1.45539e-05 3.49137e-05 1.35461e-06 
188 1 1.1348e-06 3.60943e-05 3.45153e-05 1.34696e-06 
182 1 1.20059e-06 4.50499e-05 3.45775e-05 1.3076e-06 
59 1 1.18494e-06 2.49351e-05 3.51705e-05 1.42283e-06 
35 1 1.44189e-06 4.5416e-05 3.53439e-05 1.4384e-06 
185 1 1.14467e-06 4.41988e-05 3.92054e-06 1.58334e-06 
45 1 1.21905e-06 3.52521e-05 4.93578e-06 1.88889e-06 
103 2 1.01387e-06 4.33972e-05 4.76673e-06 1.54058e-06 
190 1 1.17734e-06 2.55302e-05 5.71757e-06 1.68392e-06 
11 1 1.20905e-06 5.06113e-06 1.4331e-05 1.97328e-06 
12 1 1.1522e-06 1.41231e-05 1.44526e-05 1.58982e-06 
105 2 9.84038e-07 2.55576e-05 1.44189e-05 1.59447e-06 
106 2 8.7384e-07 3.56606e-05 1.44006e-05 1.56884e-06 
91 2 9.32657e-07 4.52008e-05 1.42563e-05 1.5119e-06 
89 2 1.07725e-06 1.54359e-05 1.46943e-05 1.52399e-06 
90 2 1.07404e-06 3.38808e-05 1.48412e-05 1.73557e-06 
179 1 1.27388e-06 4.42797e-05 1.47583e-05 1.52953e-06 
88 2 9.40203e-07 4.2674e-06 1.52708e-05 1.65303e-06 
21 1 1.2491e-06 4.44754e-06 2.45058e-05 1.63863e-06 
94 2 9.22739e-07 5.62689e-06 2.47146e-05 1.54356e-06 
119 2 1.02769e-06 4.75236e-06 3.35678e-05 1.88942e-06 
167 1 1.2419e-06 5.91056e-06 3.43503e-05 1.8172e-06 
100 2 9.65382e-07 2.5625e-05 3.44314e-05 1.5676e-06 
31 1 1.23537e-06 4.78349e-06 3.46623e-05 1.69221e-06 
33 1 1.44045e-06 2.45716e-05 3.49078e-05 1.96871e-06 
184 1 1.23617e-06 3.44029e-05 3.56455e-05 1.72657e-06 
3 1 1.14673e-06 2.45099e-05 4.96447e-06 2.26393e-06 
115 2 1.01281e-06 2.61985e-05 5.2845e-06 2.03421e-06 
196 1 1.27278e-06 1.61097e-05 6.05986e-06 2.3879e-06 
192 1 1.20015e-06 4.6026e-05 1.51979e-05 2.03124e-06 
191 1 1.17012e-06 5.79032e-06 1.5566e-05 2.04995e-06 
104 2 9.62954e-07 1.50187e-05 1.55686e-05 2.12077e-06 
187 1 1.2778e-06 3.5497e-05 2.4444e-05 2.0068e-06 
92 2 1.03671e-06 4.45319e-05 2.48255e-05 2.09261e-06 
23 1 1.13878e-06 2.53636e-05 2.51639e-05 2.11339e-06 
166 1 1.24598e-06 4.77871e-06 2.57732e-05 2.11364e-06 
194 1 1.23725e-06 1.47806e-05 2.56934e-05 2.29644e-06 
111 2 9.73003e-07 3.4955e-05 3.44277e-05 2.05229e-06 
58 1 1.13422e-06 1.55993e-05 3.50411e-05 2.3595e-06 
112 2 8.84929e-07 4.51284e-05 3.58865e-05 2.3793e-06 
114 2 9.39557e-07 1.52956e-05 4.39251e-06 2.74972e-06 
189 1 1.19006e-06 5.241e-06 4.78259e-06 2.5228e-06 
43 1 1.14603e-06 1.50001e-05 5.10845e-06 2.61129e-06 
116 2 1.00326e-06 4.61107e-06 1.44364e-05 2.73259e-06 
118 2 9.15073e-07 1.48142e-05 2.47994e-05 2.80426e-06 
117 2 1.0101e-06 4.23478e-06 2.5004e-05 2.98474e-06 
121 2 9.82618e-07 2.55811e-05 3.42587e-05 2.53347e-06 
124 2 9.67866e-07 7.56849e-05 3.84511e-06 4.88656e-07 
122 2 9.88607e-07 5.38166e-05 4.23018e-06 4.96607e-07 
123 2 9.82339e-07 6.46732e-05 4.86614e-06 4.96688e-07 
135 2 9.60389e-07 7.36013e-05 2.55681e-05 4.82915e-07 
138 2 9.62897e-07 5.58334e-05 3.53219e-05 4.82394e-07 
141 2 9.98462e-07 8.36424e-05 3.61394e-05 4.99442e-07 
142 2 9.85874e-07 8.5678e-05 3.66227e-06 6.94624e-07 
125 2 1.02393e-06 8.49516e-05 4.36497e-06 5.16947e-07 
197 1 1.19536e-06 5.5247e-05 4.77641e-06 7.18868e-07 
64 1 1.12793e-06 7.429e-05 4.83151e-06 8.68785e-07 
198 1 1.25946e-06 7.56953e-05 4.67426e-06 7.6164e-07 
9 1 1.18318e-06 8.47186e-05 4.80567e-06 7.0719e-07 
209 1 1.13415e-06 8.61392e-05 4.61981e-06 8.22938e-07 
10 1 1.17162e-06 9.58853e-05 5.36543e-06 7.07222e-07 
153 2 1.03567e-06 5.49556e-05 6.02873e-06 8.85202e-07 
18 1 1.14092e-06 7.50652e-05 1.44887e-05 5.41641e-07 
170 1 1.26663e-06 8.39252e-05 1.41773e-05 6.93749e-07 
169 1 1.3034e-06 6.46954e-05 1.46855e-05 6.09689e-07 
127 2 1.06999e-06 7.36158e-05 1.48542e-05 6.86236e-07 
19 1 1.21795e-06 8.50314e-05 1.46494e-05 7.2032e-07 
20 1 1.11387e-06 9.41628e-05 1.45807e-05 6.77243e-07 
147 2 1.0186e-06 9.5396e-05 1.48174e-05 5.15397e-07 
67 1 1.24249e-06 5.48665e-05 1.50604e-05 7.52036e-07 
68 1 1.41427e-06 6.55746e-05 1.57562e-05 9.36049e-07 
203 1 1.16718e-06 6.54436e-05 2.38749e-05 6.97251e-07 
30 1 1.23809e-06 9.42746e-05 2.38836e-05 5.86807e-07 
29 1 1.14394e-06 8.50816e-05 2.43529e-05 6.84994e-07 
149 2 1.04384e-06 7.54773e-05 2.45752e-05 5.27836e-07 
72 1 1.39065e-06 5.50347e-05 2.50118e-05 6.49557e-07 
133 2 1.02466e-06 6.50723e-05 2.54208e-05 5.14309e-07 
148 2 1.04198e-06 8.56203e-05 2.53397e-05 5.45111e-07 
74 1 1.15739e-06 7.40815e-05 2.55125e-05 6.96479e-07 
75 1 1.44054e-06 8.44949e-05 2.56979e-05 7.81692e-07 
150 2 9.4057e-07 9.4214e-05 2.56223e-05 9.7168e-07 
80 1 1.19697e-06 8.48742e-05 3.44449e-05 7.20299e-07 
81 1 1.22634e-06 9.41518e-05 3.42865e-05 7.35251e-07 
37 1 1.43465e-06 6.44114e-05 3.49803e-05 6.876e-07 
77 1 1.40473e-06 5.47045e-05 3.53459e-05 6.65626e-07 
160 2 1.06432e-06 6.56005e-05 3.50619e-05 5.33738e-07 
206 1 1.24291e-06 7.53105e-05 3.5226e-05 7.5348e-07 
39 1 1.14672e-06 8.46724e-05 3.53599e-05 6.89669e-07 
137 2 1.03404e-06 9.44562e-05 3.56257e-05 5.20844e-07 
139 2 9.79904e-07 6.48842e-05 3.61021e-05 9.66212e-07 
6 1 1.16601e-06 5.44251e-05 4.84704e-06 1.28046e-06 
7 1 1.44329e-06 6.53927e-05 4.68775e-06 1.4041e-06 
200 1 1.17154e-06 9.4967e-05 5.37409e-06 1.2317e-06 
66 1 1.22922e-06 9.5005e-05 5.05369e-06 1.25063e-06 
62 1 1.16813e-06 5.52904e-05 5.63935e-06 1.40055e-06 
199 1 1.18086e-06 8.39858e-05 5.9408e-06 1.02966e-06 
126 2 9.585e-07 9.44417e-05 5.63108e-06 1.31023e-06 
168 1 1.298e-06 7.44136e-05 1.44226e-05 1.4702e-06 
201 1 1.08718e-06 5.50151e-05 1.48869e-05 1.34227e-06 
69 1 1.42615e-06 7.51989e-05 1.55175e-05 1.39307e-06 
70 1 1.39857e-06 8.5501e-05 1.56133e-05 1.35604e-06 
71 1 1.11731e-06 9.50937e-05 1.55879e-05 1.07907e-06 
216 1 1.26876e-06 7.5593e-05 2.39622e-05 1.34143e-06 
27 1 1.11627e-06 6.47621e-05 2.475e-05 1.21047e-06 
73 1 1.19312e-06 6.52213e-05 2.46791e-05 1.40716e-06 
136 2 9.6358e-07 8.39698e-05 2.47294e-05 1.19367e-06 
171 1 1.22634e-06 9.49776e-05 2.46319e-05 1.09451e-06 
204 1 1.14573e-06 7.53804e-05 2.54626e-05 1.04491e-06 
76 1 1.41471e-06 9.54237e-05 2.57829e-05 1.34431e-06 
218 1 1.2928e-06 6.45539e-05 3.49137e-05 1.35461e-06 
211 1 1.13465e-06 8.60943e-05 3.45153e-05 1.34696e-06 
205 1 1.20059e-06 9.50499e-05 3.45775e-05 1.3076e-06 
79 1 1.18494e-06 7.49351e-05 3.51705e-05 1.42283e-06 
40 1 1.44189e-06 9.5416e-05 3.53439e-05 1.4384e-06 
208 1 1.14467e-06 9.41988e-05 3.92054e-06 1.58334e-06 
65 1 1.21905e-06 8.52521e-05 4.93578e-06 1.88889e-06 
143 2 1.01387e-06 9.33972e-05 4.76673e-06 1.54058e-06 
213 1 1.17734e-06 7.55302e-05 5.71757e-06 1.68392e-06 
16 1 1.20905e-06 5.50611e-05 1.4331e-05 1.97328e-06 
17 1 1.1522e-06 6.41231e-05 1.44526e-05 1.58982e-06 
145 2 9.84038e-07 7.55576e-05 1.44189e-05 1.59447e-06 
146 2 8.7384e-07 8.56606e-05 1.44006e-05 1.56884e-06 
131 2 9.32657e-07 9.52008e-05 1.42563e-05 1.5119e-06 
129 2 1.07725e-06 6.54359e-05 1.46943e-05 1.52399e-06 
130 2 1.07404e-06 8.38808e-05 1.48412e-05 1.73557e-06 
202 1 1.27389e-06 9.42797e-05 1.47583e-05 1.52953e-06 
128 2 9.40203e-07 5.42674e-05 1.52708e-05 1.65303e-06 
26 1 1.2491e-06 5.44475e-05 2.45058e-05 1.63863e-06 
134 2 9.22739e-07 5.56269e-05 2.47146e-05 1.54356e-06 
159 2 1.02769e-06 5.47524e-05 3.35678e-05 1.88942e-06 
173 1 1.2419e-06 5.59106e-05 3.43503e-05 1.8172e-06 
140 2 9.65382e-07 7.5625e-05 3.44314e-05 1.5676e-06 
36 1 1.23537e-06 5.47835e-05 3.46623e-05 1.69221e-06 
38 1 1.44045e-06 7.45716e-05 3.49078e-05 1.96871e-06 
207 1 1.23617e-06 8.44029e-05 3.56455e-05 1.72657e-06 
8 1 1.14673e-06 7.45099e-05 4.96447e-06 2.26393e-06 
155 2 1.01281e-06 7.61985e-05 5.2845e-06 2.03421e-06 
219 1 1.27261e-06 6.61097e-05 6.05986e-06 2.3879e-06 
215 1 1.20032e-06 9.6026e-05 1.51979e-05 2.03124e-06 
214 1 1.17012e-06 5.57903e-05 1.5566e-05 2.04995e-06 
144 2 9.62954e-07 6.50187e-05 1.55686e-05 2.12077e-06 
210 1 1.2778e-06 8.5497e-05 2.4444e-05 2.0068e-06 
132 2 1.03671e-06 9.45319e-05 2.48255e-05 2.09261e-06 
28 1 1.13878e-06 7.53636e-05 2.51639e-05 2.11339e-06 
172 1 1.24598e-06 5.47787e-05 2.57732e-05 2.11364e-06 
217 1 1.23725e-06 6.47806e-05 2.56934e-05 2.29644e-06 
151 2 9.73003e-07 8.4955e-05 3.44277e-05 2.05229e-06 
78 1 1.13422e-06 6.55993e-05 3.50411e-05 2.3595e-06 
152 2 8.84929e-07 9.51284e-05 3.58865e-05 2.3793e-06 
154 2 9.39557e-07 6.52956e-05 4.39251e-06 2.74972e-06 
212 1 1.19006e-06 5.5241e-05 4.78259e-06 2.5228e-06 
63 1 1.14602e-06 6.50001e-05 5.10845e-06 2.61129e-06 
156 2 1.00326e-06 5.46111e-05 1.44364e-05 2.73259e-06 
158 2 9.15073e-07 6.48142e-05 2.47994e-05 2.80426e-06 
157 2 1.0101e-06 5.42348e-05 2.5004e-05 2.98474e-06 
161 2 9.82618e-07 7.55811e-05 3.42587e-05 2.53347e-06 
ITEM: TIMESTEP
2000
ITEM: NUMBER OF ATOMS
2037
ITEM: BOX BOUNDS pp pp ff
0.0000000000000000e+00 1.0000000000000000e-04
0.0000000000000000e+00 4.0000000000000003e-05
0.0000000000000000e+00 1.0000000000000000e-04
ITEM: ATOMS id type diameter x y z 
591 2 9.45425e-07 2.34095e-05 3.19862e-06 4.82221e-07 
84 2 9.67866e-07 2.58337e-05 3.38304e-06 4.88297e-07 
608 2 9.50852e-07 3.7133e-05 3.89575e-06 4.72848e-07 
82 2 9.88607e-07 4.04831e-06 4.17653e-06 4.91945e-07 
270 2 9.08359e-07 4.38123e-05 4.0512e-06 4.56936e-07 
1329 2 9.91898e-07 4.57946e-05 4.3473e-06 4.99914e-07 
83 2 9.82339e-07 1.41395e-05 4.87047e-06 4.93856e-07 
242 2 9.84147e-07 6.84456e-06 5.43411e-06 4.94495e-07 
1311 2 9.71552e-07 4.52711e-05 6.11778e-06 4.90684e-07 
1292 2 9.48543e-07 4.77092e-05 7.41503e-06 4.76841e-07 
376 2 9.50594e-07 1.41858e-05 1.31276e-05 4.79522e-07 
850 2 8.82612e-07 1.55031e-05 1.34053e-05 4.78599e-07 
792 2 9.11019e-07 1.45338e-05 1.39773e-05 4.6016e-07 
771 2 9.94768e-07 2.31561e-05 1.35371e-05 4.95494e-07 
1661 2 9.97057e-07 4.39573e-05 1.35072e-05 4.98529e-07 
808 2 9.18428e-07 2.35454e-05 1.44691e-05 4.6179e-07 
1059 2 8.86253e-07 1.27692e-05 1.52604e-05 4.46696e-07 
779 2 9.72845e-07 1.54532e-05 1.53635e-05 4.9192e-07 
772 2 8.9841e-07 3.37075e-05 1.54099e-05 4.47066e-07 
1199 2 9.71408e-07 4.03005e-06 1.63077e-05 4.85118e-07 
579 2 9.55551e-07 4.99496e-06 1.62611e-05 4.8294e-07 
1666 2 9.32792e-07 1.51577e-05 1.69626e-05 4.66396e-07 
580 2 9.82502e-07 3.57304e-05 1.71548e-05 4.91982e-07 
1395 2 8.79937e-07 3.49489e-05 1.76912e-05 4.43162e-07 
1317 2 9.46822e-07 4.53572e-05 2.34089e-05 4.77263e-07 
598 2 9.78872e-07 4.59262e-05 2.41821e-05 4.94133e-07 
1299 2 9.75461e-07 2.48732e-05 2.45596e-05 4.85342e-07 
1672 2 9.79279e-07 3.50173e-05 2.49241e-05 4.8964e-07 
602 2 9.54094e-07 4.5034e-05 2.49259e-05 4.74295e-07 
95 2 9.60389e-07 2.29448e-05 2.5458e-05 4.85321e-07 
283 2 8.68316e-07 4.67663e-06 2.59595e-05 4.31103e-07 
599 2 9.14407e-07 6.0127e-06 2.5762e-05 4.59199e-07 
1321 2 8.8216e-07 6.91047e-06 2.56205e-05 4.3894e-07 
284 2 9.73756e-07 3.53205e-05 2.68633e-05 4.93253e-07 
1325 2 9.17062e-07 4.49787e-05 3.29772e-05 4.6475e-07 
603 2 9.61958e-07 3.45785e-05 3.30422e-05 4.84081e-07 
266 2 9.15799e-07 3.6319e-05 3.43729e-05 4.63281e-07 
98 2 9.62897e-07 5.96421e-06 3.52998e-05 4.8657e-07 
1709 2 8.88379e-07 1.18855e-05 3.58048e-05 4.44189e-07 
352 2 9.69703e-07 4.95777e-06 3.61048e-05 4.80283e-07 
606 2 9.65895e-07 4.46689e-05 3.74346e-05 4.87414e-07 
1287 2 1.00719e-06 4.0569e-06 2.63251e-06 5.09956e-07 
1648 2 1.00093e-06 1.51618e-05 2.536e-06 5.00465e-07 
625 2 9.47843e-07 4.33411e-05 2.97828e-06 6.8451e-07 
486 1 1.30544e-06 4.44312e-05 2.96243e-06 6.12594e-07 
801 2 1.12564e-06 4.82696e-06 3.44487e-06 5.59507e-07 
225 1 1.27881e-06 1.55666e-05 3.41927e-06 7.27305e-07 
574 2 1.08723e-06 2.4806e-05 3.14293e-06 5.44674e-07 
1650 2 1.11184e-06 3.28262e-05 3.35919e-06 8.98502e-07 
102 2 9.85874e-07 3.57448e-05 3.16331e-06 8.33745e-07 
245 2 9.68816e-07 3.67209e-05 3.13271e-06 9.0233e-07 
1202 1 1.29401e-06 1.69995e-05 3.93239e-06 8.08747e-07 
85 2 1.02393e-06 3.50408e-05 3.81729e-06 5.15723e-07 
1716 2 1.07666e-06 3.6199e-05 3.84086e-06 7.33256e-07 
577 2 1.01874e-06 4.64054e-05 3.53821e-06 5.072e-07 
1291 2 1.08629e-06 5.4825e-06 4.3394e-06 5.47132e-07 
1053 2 1.09222e-06 6.55825e-06 4.42707e-06 5.44004e-07 
1289 2 1.08284e-06 2.33833e-05 4.4687e-06 5.39498e-07 
1203 1 1.20595e-06 2.44446e-05 4.18812e-06 5.67779e-07 
1394 2 8.47204e-07 2.54077e-05 4.11049e-06 8.01835e-07 
593 2 1.12082e-06 2.63014e-05 4.39498e-06 5.64522e-07 
4 1 1.40863e-06 3.39022e-05 4.1526e-06 7.10883e-07 
1075 1 1.27539e-06 3.60694e-05 4.27042e-06 6.05794e-07 
576 2 1.09711e-06 4.47918e-05 4.06251e-06 6.52206e-07 
800 2 1.05465e-06 3.08851e-06 4.51642e-06 5.33387e-07 
1532 1 1.23219e-06 5.61697e-06 4.9987e-06 7.13496e-07 
1077 1 1.31975e-06 1.51708e-05 4.57872e-06 8.15019e-07 
1714 2 9.35717e-07 2.56497e-05 4.58858e-06 6.02247e-07 
1719 2 1.05611e-06 3.26142e-05 4.91702e-06 8.35853e-07 
1651 2 1.04655e-06 3.72266e-05 4.68781e-06 5.23275e-07 
966 1 1.35537e-06 4.68952e-05 4.74473e-06 6.34279e-07 
1686 2 1.02782e-06 3.45855e-06 5.27849e-06 5.13912e-07 
1722 2 9.4516e-07 1.54428e-05 5.41083e-06 7.27486e-07 
538 1 1.36702e-06 1.6056e-05 5.46324e-06 6.40633e-07 
1653 2 1.08872e-06 1.71808e-05 5.21584e-06 5.44361e-07 
1310 2 1.00013e-06 2.24274e-05 5.27093e-06 5.76321e-07 
418 1 1.36489e-06 2.515e-05 5.17246e-06 7.01529e-07 
271 2 1.08837e-06 3.53438e-05 5.37237e-06 5.49261e-07 
1720 2 1.04629e-06 3.57613e-05 5.11474e-06 8.20947e-07 
1309 2 9.68616e-07 3.78271e-05 5.16738e-06 9.8241e-07 
1533 1 1.19057e-06 4.32515e-05 5.49694e-06 7.35841e-07 
953 1 1.17189e-06 4.45495e-05 5.12861e-06 9.83968e-07 
578 2 1.01963e-06 4.5907e-05 5.34473e-06 5.20577e-07 
244 2 1.08638e-06 2.40573e-05 5.6437e-06 5.45573e-07 
1717 2 1.04826e-06 2.42182e-05 5.51563e-06 6.62586e-07 
791 2 1.12669e-06 2.62623e-05 5.60786e-06 5.70125e-07 
343 2 1.02185e-06 3.35516e-05 5.61397e-06 5.1703e-07 
575 2 1.01858e-06 3.65668e-05 5.53938e-06 5.11046e-07 
1721 2 1.20995e-06 4.51394e-05 5.87534e-06 8.91015e-07 
113 2 1.03567e-06 4.37198e-06 6.08907e-06 5.15884e-07 
257 2 1.03165e-06 6.2999e-06 6.42025e-06 8.71401e-07 
196 1 1.26079e-06 1.71214e-05 6.075e-06 9.62185e-07 
1078 1 1.43778e-06 2.50013e-05 6.48686e-06 6.72828e-07 
803 2 1.19534e-06 5.22523e-06 6.82823e-06 6.04502e-07 
278 2 1.05049e-06 1.61992e-05 6.60764e-06 5.30426e-07 
1760 2 1.11034e-06 1.65972e-05 6.81635e-06 9.21204e-07 
479 1 1.41118e-06 3.41772e-05 6.73125e-06 6.70222e-07 
1079 1 1.36176e-06 4.41633e-05 6.67535e-06 6.40536e-07 
1080 1 1.31698e-06 4.66295e-05 7.25332e-06 6.20215e-07 
1657 2 1.16549e-06 2.57276e-05 7.62277e-06 9.45372e-07 
773 2 9.93736e-07 4.31951e-05 1.25474e-05 6.19156e-07 
594 2 1.1941e-06 4.77561e-06 1.31606e-05 6.02984e-07 
1689 2 9.94728e-07 1.62713e-05 1.31918e-05 6.21776e-07 
1690 2 1.00697e-06 2.37872e-05 1.34709e-05 5.03483e-07 
1204 1 1.22326e-06 2.48982e-05 1.32026e-05 6.17586e-07 
807 2 1.14847e-06 3.37636e-05 1.34675e-05 5.78305e-07 
967 1 1.40917e-06 1.24322e-05 1.38554e-05 9.91241e-07 
1730 2 1.08165e-06 2.3998e-05 1.35707e-05 6.88197e-07 
1538 1 1.24382e-06 3.23497e-05 1.39366e-05 9.19889e-07 
1082 1 1.32906e-06 4.28582e-05 1.36165e-05 6.53337e-07 
539 1 1.29065e-06 4.40578e-05 1.36944e-05 9.49837e-07 
91 2 9.32657e-07 4.52551e-05 1.35761e-05 9.91846e-07 
715 1 1.18943e-06 3.21512e-06 1.42701e-05 6.91079e-07 
806 2 1.05928e-06 4.39886e-06 1.42382e-05 5.33833e-07 
468 1 1.43488e-06 1.61442e-05 1.42928e-05 6.80669e-07 
1662 2 1.15036e-06 1.61541e-05 1.44198e-05 5.75179e-07 
344 2 1.0671e-06 2.56687e-05 1.40167e-05 5.36521e-07 
1731 2 1.01738e-06 2.79647e-05 1.40411e-05 9.74607e-07 
1823 2 1.00522e-06 3.12459e-05 1.41401e-05 5.29143e-07 
14 1 1.40344e-06 3.52541e-05 1.40554e-05 6.74851e-07 
347 2 1.14399e-06 3.66412e-05 1.444e-05 8.26625e-07 
1692 2 1.13167e-06 1.15589e-05 1.46006e-05 5.65837e-07 
419 1 1.18066e-06 3.34348e-05 1.45473e-05 7.31128e-07 
1824 2 1.02684e-06 3.38701e-05 1.49624e-05 9.47655e-07 
595 2 1.01918e-06 4.39141e-05 1.47988e-05 5.0961e-07 
107 2 1.0186e-06 4.57131e-05 1.46624e-05 5.14367e-07 
1293 2 1.0658e-06 3.97494e-06 1.52069e-05 5.39561e-07 
248 2 1.00461e-06 5.33988e-06 1.52979e-05 5.00076e-07 
774 2 1.02402e-06 1.71165e-05 1.50276e-05 5.15975e-07 
87 2 1.06999e-06 2.33261e-05 1.54367e-05 5.33386e-07 
794 2 1.10679e-06 2.52461e-05 1.50136e-05 5.50746e-07 
777 2 1.04162e-06 2.63335e-05 1.53073e-05 5.27663e-07 
540 1 1.34773e-06 3.57751e-05 1.52551e-05 6.35305e-07 
637 2 1.01371e-06 3.74801e-05 1.50698e-05 5.05183e-07 
969 1 1.44537e-06 4.25997e-05 1.54606e-05 8.22889e-07 
247 2 1.00924e-06 4.48431e-05 1.52239e-05 5.02818e-07 
1664 2 1.06575e-06 1.25837e-05 1.57408e-05 9.04735e-07 
163 1 1.31466e-06 1.38005e-05 1.55024e-05 6.44926e-07 
1825 2 8.74233e-07 1.59338e-05 1.58517e-05 9.31684e-07 
220 1 1.19972e-06 1.64196e-05 1.57446e-05 7.35346e-07 
775 2 1.08544e-06 3.46063e-05 1.58278e-05 5.46801e-07 
1296 2 1.08221e-06 4.37334e-05 1.58453e-05 5.45948e-07 
778 2 1.14043e-06 1.55613e-05 1.64356e-05 5.76826e-07 
354 2 1.00809e-06 2.54584e-05 1.60494e-05 5.08122e-07 
226 1 1.41641e-06 2.72457e-05 1.60537e-05 8.91657e-07 
1665 2 1.13469e-06 2.71331e-05 1.6033e-05 5.67343e-07 
1085 1 1.274e-06 3.69996e-05 1.60725e-05 5.95198e-07 
544 1 1.40222e-06 4.59257e-05 1.61839e-05 6.64184e-07 
1092 1 1.2128e-06 1.45505e-05 1.69708e-05 6.36214e-07 
1314 2 1.03612e-06 2.44465e-05 1.68709e-05 9.65805e-07 
273 2 1.13814e-06 4.46075e-05 1.6529e-05 5.92778e-07 
956 1 1.44369e-06 1.44615e-05 2.25701e-05 8.2062e-07 
25 1 1.22224e-06 4.34349e-05 2.29773e-05 6.93338e-07 
717 1 1.41515e-06 4.43827e-05 2.28675e-05 6.71327e-07 
1049 2 1.12833e-06 1.54506e-05 2.32832e-05 5.65023e-07 
797 2 1.20697e-06 2.63578e-05 2.33379e-05 6.04642e-07 
957 1 1.38013e-06 3.57812e-05 2.33176e-05 7.35947e-07 
970 1 1.3902e-06 3.80334e-06 2.37297e-05 6.53332e-07 
1087 1 1.40277e-06 1.37044e-05 2.38622e-05 6.5881e-07 
783 2 1.01569e-06 3.46519e-05 2.36888e-05 5.12355e-07 
336 1 1.21557e-06 3.73085e-05 2.39493e-05 9.04e-07 
1669 2 1.01384e-06 3.70846e-05 2.39211e-05 5.06919e-07 
582 2 1.01959e-06 4.90896e-06 2.43412e-05 5.07251e-07 
782 2 1.03862e-06 1.48371e-05 2.41842e-05 5.17204e-07 
815 2 1.0242e-06 1.69686e-05 2.44221e-05 5.17938e-07 
109 2 1.04384e-06 2.58491e-05 2.43281e-05 5.16578e-07 
1668 2 1.08471e-06 3.53391e-05 2.42273e-05 5.42355e-07 
249 2 1.05232e-06 4.41272e-05 2.4353e-05 5.23673e-07 
365 2 1.06125e-06 1.5805e-05 2.47324e-05 5.28374e-07 
350 2 1.04512e-06 3.35225e-05 2.49223e-05 5.26045e-07 
1206 1 1.18146e-06 3.46007e-05 2.49923e-05 5.60278e-07 
1555 1 1.2108e-06 4.68813e-05 2.49446e-05 9.73848e-07 
545 1 1.2329e-06 1.30077e-05 2.50036e-05 7.99052e-07 
1341 2 1.18719e-06 1.44128e-05 2.51624e-05 8.37807e-07 
108 2 1.04198e-06 3.60138e-05 2.54957e-05 5.26338e-07 
1744 2 1.00576e-06 3.76989e-05 2.50158e-05 6.54039e-07 
110 2 9.4057e-07 4.31917e-05 2.53599e-05 7.15069e-07 
262 2 1.00826e-06 1.34548e-05 2.59937e-05 8.26253e-07 
93 2 1.02466e-06 1.52584e-05 2.58145e-05 5.1316e-07 
1747 2 1.06233e-06 1.74994e-05 2.574e-05 6.73774e-07 
1207 1 1.29867e-06 2.40038e-05 2.56166e-05 6.27416e-07 
1088 1 1.40964e-06 2.52794e-05 2.56365e-05 6.67319e-07 
1343 2 9.33079e-07 4.40511e-05 2.56706e-05 5.35151e-07 
1535 1 1.24597e-06 4.5e-05 2.55681e-05 7.22965e-07 
1397 2 1.02357e-06 2.93313e-06 2.61431e-05 5.16591e-07 
1396 2 9.5491e-07 7.47998e-06 2.61861e-05 8.98407e-07 
483 1 1.2995e-06 2.67964e-05 2.64559e-05 6.69262e-07 
601 2 1.09129e-06 3.27893e-05 2.63542e-05 6.08338e-07 
958 1 1.38558e-06 3.4025e-05 2.60896e-05 6.51298e-07 
228 1 1.15178e-06 4.61519e-05 2.63081e-05 8.66225e-07 
1324 2 1.07116e-06 6.04181e-06 2.6751e-05 6.12382e-07 
281 2 1.09433e-06 1.47466e-05 2.66727e-05 8.96613e-07 
251 2 9.77744e-07 2.27095e-05 2.68663e-05 8.5931e-07 
471 1 1.26487e-06 2.41142e-05 2.68854e-05 5.91972e-07 
1401 2 1.013e-06 3.62714e-05 2.65013e-05 5.07422e-07 
472 1 1.42124e-06 4.44391e-05 2.67062e-05 8.30904e-07 
585 2 1.09321e-06 3.3567e-05 2.71863e-05 5.50681e-07 
1345 2 9.56289e-07 3.60216e-05 2.73323e-05 9.75241e-07 
959 1 1.39513e-06 4.63779e-05 2.70571e-05 6.60966e-07 
586 2 1.11948e-06 4.52949e-05 2.75889e-05 9.80871e-07 
1834 2 1.02632e-06 5.9703e-06 3.24419e-05 5.1316e-07 
1676 2 1.09444e-06 1.3524e-05 3.27021e-05 5.47218e-07 
1678 2 1.01736e-06 4.31656e-05 3.29422e-05 9.82489e-07 
57 1 1.27207e-06 2.97659e-06 3.32902e-05 6.80069e-07 
1702 2 1.02713e-06 5.54285e-06 3.32965e-05 5.13563e-07 
1704 2 1.04503e-06 1.18136e-05 3.33924e-05 8.15074e-07 
1089 1 1.36533e-06 4.23891e-05 3.3008e-05 7.83874e-07 
1751 2 1.11949e-06 1.35559e-05 3.38088e-05 6.90365e-07 
960 1 1.39702e-06 1.43167e-05 3.35625e-05 6.53811e-07 
1224 1 1.28666e-06 1.55354e-05 3.35789e-05 9.80958e-07 
183 1 1.29033e-06 2.49496e-05 3.38126e-05 6.06875e-07 
962 1 1.36463e-06 3.54221e-05 3.37646e-05 6.39782e-07 
1326 2 9.94096e-07 3.70547e-05 3.37835e-05 5.0222e-07 
718 1 1.21677e-06 4.40107e-05 3.36546e-05 5.69579e-07 
619 2 9.36401e-07 4.59243e-05 3.36026e-05 5.41406e-07 
1367 2 1.09188e-06 4.67303e-06 3.40337e-05 5.50263e-07 
275 2 1.04797e-06 5.75144e-06 3.43031e-05 5.24608e-07 
1707 2 1.06202e-06 2.24375e-05 3.43331e-05 5.31009e-07 
719 1 1.24372e-06 2.62656e-05 3.44203e-05 5.80693e-07 
1753 2 1.05837e-06 3.39391e-05 3.44403e-05 6.55531e-07 
423 1 1.33721e-06 4.27472e-05 3.44987e-05 6.334e-07 
254 2 1.08136e-06 4.50315e-05 3.40901e-05 5.33002e-07 
1090 1 1.40398e-06 2.65667e-06 3.48949e-05 6.63706e-07 
983 1 1.44048e-06 6.85015e-06 3.45365e-05 9.9327e-07 
1543 1 1.11572e-06 1.32314e-05 3.48549e-05 6.91422e-07 
1826 2 8.4234e-07 1.4241e-05 3.45877e-05 5.02453e-07 
120 2 1.06432e-06 1.60827e-05 3.47863e-05 5.36082e-07 
1828 2 1.00696e-06 2.48844e-05 3.49837e-05 5.03481e-07 
1711 2 9.86109e-07 2.53468e-05 3.49576e-05 7.27724e-07 
253 2 9.98409e-07 3.40049e-05 3.4947e-05 5.04063e-07 
784 2 1.01227e-06 4.38156e-05 3.49403e-05 5.09296e-07 
358 2 1.07396e-06 4.76411e-06 3.51147e-05 5.44503e-07 
1545 1 1.22655e-06 1.32585e-05 3.51137e-05 9.37248e-07 
786 2 1.06684e-06 1.49352e-05 3.51213e-05 5.34005e-07 
1706 2 1.01584e-06 1.52729e-05 3.50181e-05 5.14058e-07 
819 2 1.02098e-06 2.36462e-05 3.54162e-05 9.06659e-07 
1546 1 1.20021e-06 2.48467e-05 3.50384e-05 7.43367e-07 
623 2 1.10301e-06 3.30621e-05 3.54796e-05 6.88873e-07 
1544 1 1.27946e-06 3.48806e-05 3.54148e-05 7.22022e-07 
1682 2 1.13756e-06 3.47089e-05 3.51975e-05 5.68782e-07 
605 2 1.01401e-06 3.64418e-05 3.53353e-05 5.08827e-07 
788 2 1.13989e-06 1.58407e-05 3.58631e-05 5.76733e-07 
97 2 1.03404e-06 4.45261e-05 3.56977e-05 5.23811e-07 
818 2 1.04842e-06 4.67553e-05 3.56308e-05 7.9382e-07 
224 1 1.28444e-06 6.00259e-06 3.63838e-05 6.01152e-07 
963 1 1.37541e-06 1.44231e-05 3.61932e-05 6.49469e-07 
255 2 1.04185e-06 2.4263e-05 3.62917e-05 8.30282e-07 
268 2 1.01232e-06 2.52362e-05 3.61045e-05 5.07096e-07 
475 1 1.35336e-06 3.42265e-05 3.60734e-05 6.39778e-07 
964 1 1.23818e-06 3.55557e-05 3.62294e-05 7.65741e-07 
1712 2 1.19072e-06 4.197e-05 3.61819e-05 8.79217e-07 
287 2 1.01827e-06 4.57341e-05 3.60598e-05 5.15775e-07 
604 2 1.19734e-06 2.64513e-05 3.65353e-05 6.04216e-07 
101 2 9.98462e-07 3.32046e-05 3.65544e-05 5.00027e-07 
1683 2 1.02675e-06 3.59932e-05 3.66658e-05 5.13375e-07 
1328 2 1.04217e-06 4.24693e-05 1.95808e-06 1.32451e-06 
1353 2 1.16726e-06 4.51015e-05 2.10497e-06 1.13068e-06 
1649 2 1.08757e-06 1.62871e-05 2.93205e-06 1.06923e-06 
572 2 9.41172e-07 2.54995e-05 3.18705e-06 1.36168e-06 
497 1 1.23042e-06 6.04431e-06 3.59157e-06 1.32917e-06 
573 2 1.06699e-06 7.13495e-06 4.37371e-06 1.46583e-06 
965 1 1.20398e-06 2.4703e-05 4.32177e-06 1.20147e-06 
466 1 1.3059e-06 3.75421e-05 4.13157e-06 1.46168e-06 
476 1 1.2501e-06 3.43216e-06 4.92826e-06 1.48308e-06 
1 1 1.38518e-06 4.60287e-06 4.51814e-06 1.44233e-06 
1370 2 1.06633e-06 1.61946e-05 4.52891e-06 1.35381e-06 
1104 1 1.36475e-06 2.19211e-05 4.53281e-06 1.42811e-06 
353 2 1.12642e-06 3.29279e-05 4.85674e-06 1.0103e-06 
426 1 1.31243e-06 4.50221e-05 4.99465e-06 1.33707e-06 
1549 1 1.25192e-06 4.03008e-06 5.35053e-06 1.28292e-06 
41 2 1e-08 6.13783e-06 5.01587e-06 1.07732e-06 
464 1 1.3681e-06 2.34085e-05 5.17572e-06 1.4998e-06 
1215 1 1.26971e-06 2.8016e-05 5.21729e-06 1.45969e-06 
1076 1 1.25716e-06 3.45332e-05 5.06448e-06 1.26341e-06 
1723 2 1.07108e-06 2.5545e-05 5.63069e-06 1.24805e-06 
952 1 1.13308e-06 5.29525e-06 6.07269e-06 1.10866e-06 
1688 2 9.46564e-07 3.40393e-05 6.1266e-06 1.4878e-06 
767 2 1.02949e-06 3.56071e-05 6.12007e-06 1.24911e-06 
5 1 1.33784e-06 4.60476e-05 6.3437e-06 1.25423e-06 
1656 2 1.03642e-06 1.78384e-05 6.95584e-06 1.40943e-06 
1761 2 1.07219e-06 2.61609e-05 6.69579e-06 1.20429e-06 
769 2 1.06296e-06 4.33261e-05 7.33024e-06 1.1347e-06 
770 2 1.11391e-06 3.34584e-05 7.74526e-06 1.2868e-06 
1822 2 1.0477e-06 1.39944e-05 1.17749e-05 1.39369e-06 
1831 2 9.25828e-07 1.64824e-05 1.23909e-05 1.07412e-06 
837 2 8.60681e-07 5.53734e-06 1.32558e-05 1.35607e-06 
13 1 1.34593e-06 2.38721e-05 1.30654e-05 1.23847e-06 
105 2 9.84038e-07 2.56865e-05 1.34374e-05 1.41072e-06 
1399 2 8.76879e-07 4.24492e-06 1.37058e-05 1.33709e-06 
334 1 1.17315e-06 1.53322e-05 1.35144e-05 1.17673e-06 
1725 2 8.6333e-07 1.64783e-05 1.35707e-05 1.21057e-06 
826 2 9.98003e-07 2.28227e-05 1.3691e-05 1.43594e-06 
1534 1 1.23048e-06 3.02154e-06 1.41909e-05 1.43375e-06 