Granular Flow Simulation

     0 atoms
     7 atom types
     4 nutrients

 0.000000e-04   0.5e-04  xlo xhi
 0.000000e-04   0.2e-04  ylo yhi
 0.000000e-04   0.3e-04  zlo zhi

Atoms


Nutrients

   1 il17 l 0 0 0 0 0 0 0
   2 tnfa l 0 0 0 0 0 0 0
   3 il23 l 0.015 0.015 0.015 0.015 0.015 0.015 0
   4 gf l 0 0 0 0 0 0 0

Type Name

   1 stem
   2 ta
   3 diff
   4 tcell
   5 dc
   6 apop
   7 bm

Diffusion Coeffs

   il17 1.6e-10
   tnfa 1.6e-10
   il23 1.6e-10
   gf 1.6e-10

Division Counter

   stem 0
   ta 0
   diff 0
   tcell 0
   dc 0
   apop 0
   bm 0

Growth Rate

  stem 2.04-8
  ta 2.03e-8
  diff 0
  tcell 6.37e-4
  dc 6.94e-2
  apop 0
  bm 0

Decay

  stem 2.11e-10
  ta 4.32e-11
  diff 5.84e-12
  tcell 1.75e-5
  dc 1.75e-5
  apop 0
  bm 0
