Granular Flow Simulation

     0 atoms
     7 atom types
     4 nutrients

 0.000000e-04   0.5e-04  xlo xhi
 0.000000e-04   0.2e-04  ylo yhi
 0.000000e-04   0.3e-04  zlo zhi

Atoms


Nutrients

   1 il17 l 0 0 0 0 0 0 0
   2 tnfa l 0 0 0 0 0 0 0
   3 il23 l 0.015 0.015 0.015 0.015 0.015 0.015 0
   4 gf l 0 0 0 0 0 0 0

Type Name

   1 stem
   2 ta
   3 diff
   4 tcell
   5 dc
   6 apop
   7 bm

Diffusion Coeffs

   il17 1e-10
   tnfa 1e-10
   il23 1.6e-9
   gf 1.6e-9

Division Counter

   stem 0
   ta 0
   diff 0
   tcell 0
   dc 0
   apop 0
   bm 0

Growth Rate

  stem 4.90e-07
  ta 4.88e-07
  diff 0
  tcell 0.01527777777
  dc 6.94e-2
  apop 0
  bm 0

Decay

  stem 5.04e-19
  ta 1.04e-19
  diff 1.40e-20
  tcell 0.00041944444
  dc 0.00041944444
  apop 0
  bm 0
