Granular Flow Simulation

     0 atoms
     4 atom types
     2 nutrients

     0.000000e-04   0.25e-03  xlo xhi
     0.000000e-04   0.2e-03  ylo yhi
     0.000000e-04   0.3e-03  zlo zhi

Atoms


Nutrients

   1 gf l 1e-6 1e-6 1e-6 1e-6 1e-6 1e-6 1e-6 
   2 ca l 1e-20 1e-20 1e-20 1e-20 1e-20 1e-20 1e-20

Type Name

   1 stem
   2 ta
   3 diff
   4 bm

Diffusion Coeffs

   gf 5e-11
   ca 1e-11

 Ks

    stem 2.5e-6 2.5e-6
    ta 2.5e-6 2.5e-6
    diff 0 0
    bm 0 0

Division Counter

   stem 0
   ta 0
   diff 0
   bm 0

 Growth Rate

    stem 1.28e-06
    ta 3.21e-06
    diff 0
    bm 0

 Yield

    stem 2.04
    ta  5.1
    diff 0.65
    bm 0

  Decay

   stem 0
   ta 0
   diff 0
   bm 0
