<?xml version="1.0"?>
<VTKFile type="UnstructuredGrid" version="0.1" byte_order="LittleEndian" header_type="UInt32" compressor="vtkZLibDataCompressor">
  <UnstructuredGrid>
    <Piece NumberOfPoints="20" NumberOfCells="20">
      <PointData>
        <DataArray type="Int32" Name="id" format="ascii" RangeMin="1" RangeMax="106056">
          106039 3 106040 6 10 106042
          106045 4 8 106047 106049 1
          106050 2 106052 5 9 106055
          7 106056
        </DataArray>
        <DataArray type="Int32" Name="type" format="ascii" RangeMin="1" RangeMax="1">
          1 1 1 1 1 1
          1 1 1 1 1 1
          1 1 1 1 1 1
          1 1
        </DataArray>
        <DataArray type="Float64" Name="diameter" format="ascii" RangeMin="1e-06" RangeMax="1e-06">
          1e-06 1e-06 1e-06 1e-06 1e-06 1e-06
          1e-06 1e-06 1e-06 1e-06 1e-06 1e-06
          1e-06 1e-06 1e-06 1e-06 1e-06 1e-06
          1e-06 1e-06
        </DataArray>
      </PointData>
      <CellData>
      </CellData>
      <Points>
        <DataArray type="Float32" Name="Points" NumberOfComponents="3" format="ascii" RangeMin="3.920125788e-05" RangeMax="0.00012119274512">
          2.260531619e-05 3.0059011351e-06 3.1885778299e-05 2.3055539714e-05 4.5090973799e-06 3.2819978514e-05
          7.8042779933e-05 2.4904316888e-05 4.23283891e-05 7.8030316217e-05 2.487212987e-05 4.4154268835e-05
          9.0980807727e-05 9.8652726592e-06 4.4577536755e-05 9.0928653663e-05 1.0418049897e-05 4.631729098e-05
          7.1177681093e-05 1.0279058188e-05 4.760794036e-05 7.1853690315e-05 1.0756989468e-05 4.9235706683e-05
          7.7309457993e-05 1.1724146134e-05 5.3965311963e-05 7.7574542956e-05 1.010044798e-05 5.4758002079e-05
          2.2419767447e-06 2.460613905e-05 5.561580474e-05 9.0856030965e-07 2.3857961423e-05 5.6467008108e-05
          4.5712786232e-05 2.8891498005e-05 6.6265340138e-05 4.3937994633e-05 2.9290111343e-05 6.6103311838e-05
          3.4580709325e-05 6.2692356551e-06 6.9455207267e-05 3.3175827411e-05 7.1211647992e-06 7.0252426667e-05
          8.2230922999e-05 1.2979929807e-06 7.1364098403e-05 8.1070647866e-05 1.7058720232e-06 7.2714072303e-05
          7.8483106336e-05 2.1027057301e-05 8.8585831691e-05 7.8075085185e-05 2.0740471882e-05 9.0342655312e-05
        </DataArray>
      </Points>
      <Cells>
        <DataArray type="Int64" Name="connectivity" format="ascii" RangeMin="0" RangeMax="19">
          0 1 2 3 4 5
          6 7 8 9 10 11
          12 13 14 15 16 17
          18 19
        </DataArray>
        <DataArray type="Int64" Name="offsets" format="ascii" RangeMin="1" RangeMax="20">
          1 2 3 4 5 6
          7 8 9 10 11 12
          13 14 15 16 17 18
          19 20
        </DataArray>
        <DataArray type="UInt8" Name="types" format="ascii" RangeMin="1" RangeMax="1">
          1 1 1 1 1 1
          1 1 1 1 1 1
          1 1 1 1 1 1
          1 1
        </DataArray>
      </Cells>
    </Piece>
  </UnstructuredGrid>
</VTKFile>
