<?xml version="1.0"?>
<VTKFile type="UnstructuredGrid" version="0.1" byte_order="LittleEndian" header_type="UInt32" compressor="vtkZLibDataCompressor">
  <UnstructuredGrid>
    <Piece NumberOfPoints="20" NumberOfCells="20">
      <PointData>
        <DataArray type="Int32" Name="id" format="ascii" RangeMin="1" RangeMax="14759">
          5 14743 14742 14745 4 14747
          9 6 10 14749 7 14751
          14753 1 14754 2 14757 3
          8 14759
        </DataArray>
        <DataArray type="Int32" Name="type" format="ascii" RangeMin="1" RangeMax="1">
          1 1 1 1 1 1
          1 1 1 1 1 1
          1 1 1 1 1 1
          1 1
        </DataArray>
        <DataArray type="Float64" Name="diameter" format="ascii" RangeMin="1e-06" RangeMax="1e-06">
          1e-06 1e-06 1e-06 1e-06 1e-06 1e-06
          1e-06 1e-06 1e-06 1e-06 1e-06 1e-06
          1e-06 1e-06 1e-06 1e-06 1e-06 1e-06
          1e-06 1e-06
        </DataArray>
      </PointData>
      <CellData>
      </CellData>
      <Points>
        <DataArray type="Float32" Name="Points" NumberOfComponents="3" format="ascii" RangeMin="2.1824511572e-05" RangeMax="8.9214318327e-05">
          3.9327987906e-05 2.1190167899e-05 2.1357191144e-06 1.7345415472e-05 1.2845542187e-05 3.2307759739e-06
          3.8222322473e-05 2.0697743821e-05 3.503218295e-06 7.5541320257e-05 1.6672915081e-05 4.2343854147e-06
          1.8542625185e-05 1.2500899174e-05 4.5660426622e-06 5.8021294535e-05 1.7371312424e-06 5.5635055105e-06
          7.6196345617e-05 1.7617734557e-05 5.6532903727e-06 5.8622110373e-05 9.0856030965e-07 6.6467032411e-06
          8.7798558525e-05 4.1188973228e-06 9.1302035798e-06 8.863635594e-05 2.6363250072e-06 9.7898309832e-06
          8.0631303717e-05 1.6294237867e-05 1.6933534425e-05 7.895197632e-05 1.6069014237e-05 1.7614836906e-05
          3.2757884583e-06 2.6531602998e-05 1.96046567e-05 2.1416062737e-06 2.5355107937e-05 2.0419836801e-05
          4.0251365135e-05 4.6459922487e-06 2.0510295144e-05 4.1088555008e-05 4.9315058277e-06 2.2107988116e-05
          9.8898990473e-06 6.8663002821e-06 2.4194978323e-05 9.3037033366e-06 5.3735034271e-06 2.5068455216e-05
          7.12877154e-05 3.8489441067e-05 3.4211079765e-05 7.1539587225e-05 3.799080514e-05 3.5949742596e-05
        </DataArray>
      </Points>
      <Cells>
        <DataArray type="Int64" Name="connectivity" format="ascii" RangeMin="0" RangeMax="19">
          0 1 2 3 4 5
          6 7 8 9 10 11
          12 13 14 15 16 17
          18 19
        </DataArray>
        <DataArray type="Int64" Name="offsets" format="ascii" RangeMin="1" RangeMax="20">
          1 2 3 4 5 6
          7 8 9 10 11 12
          13 14 15 16 17 18
          19 20
        </DataArray>
        <DataArray type="UInt8" Name="types" format="ascii" RangeMin="1" RangeMax="1">
          1 1 1 1 1 1
          1 1 1 1 1 1
          1 1 1 1 1 1
          1 1
        </DataArray>
      </Cells>
    </Piece>
  </UnstructuredGrid>
</VTKFile>
