  Granular Flow Simulation

       5 atoms
       7 atom types
       1 nutrients

   0.000000e-04   1e-04  xlo xhi
   0.000000e-04   0.2e-04  ylo yhi
   0.000000e-04   1e-04  zlo zhi

 Atoms

     1 4 1.0e-6 150 0.52e-5 0.6e-5 1e-6 1.0e-6
     2 4 1.0e-6 150 1.52e-5 0.6e-5 1e-6 1.0e-6
     3 4 1.0e-6 150 2.52e-5 0.6e-5 1e-6 1.0e-6
     4 4 1.0e-6 150 3.52e-5 0.6e-5 1e-6 1.0e-6
     5 4 1.0e-6 150 4.52e-5 0.6e-5 1e-6 1.0e-6

 Nutrients

     1 il17 l 0 0 0 0 0 0 0

 Type Name

     1 stem
     2 ta
     3 diff
     4 tcell
     5 dc
     6 bm
     7 sbm

 Diffusion Coeffs

     il17 1.6e-9

 Division Counter

     stem 0
     ta 4
     diff 0
     tcell 0
     dc 0
     bm 0
     sbm 0

 Growth Rate

    stem 0.1
    ta 0
    diff 0
    tcell 0.1
    dc 0
    bm 0
    sbm 0

 Decay

    stem 0.01
    ta 0
    diff 0
    tcell 0.01
    dc 0
    bm 0
    sbm 0
