<?xml version="1.0"?>
<VTKFile type="UnstructuredGrid" version="0.1" byte_order="LittleEndian" header_type="UInt32" compressor="vtkZLibDataCompressor">
  <UnstructuredGrid>
    <Piece NumberOfPoints="82" NumberOfCells="82">
      <PointData>
        <DataArray type="Int32" Name="id" format="ascii" RangeMin="1" RangeMax="292262">
          292182 8 292183 16 292185 10
          292186 12 292189 18 41 292192
          38 6 36 292197 292193 27
          292194 20 292195 21 19 292207
          292200 13 32 292214 292202 29
          292206 292212 292205 292215 22 292211
          2 292209 292219 15 40 30
          292225 11 24 292231 1 292223
          26 292228 292239 35 292233 7
          28 292236 292237 39 23 25
          292247 292245 292241 292248 31 33
          292246 5 37 3 292252 9
          292253 292256 17 292259 14 292257
          292258 4 34 292262
        </DataArray>
        <DataArray type="Int32" Name="type" format="ascii" RangeMin="1" RangeMax="1">
          1 1 1 1 1 1
          1 1 1 1 1 1
          1 1 1 1 1 1
          1 1 1 1 1 1
          1 1 1 1 1 1
          1 1 1 1 1 1
          1 1 1 1 1 1
          1 1 1 1 1 1
          1 1 1 1 1 1
          1 1 1 1 1 1
          1 1 1 1 1 1
          1 1 1 1 1 1
          1 1 1 1 1 1
          1 1 1 1
        </DataArray>
        <DataArray type="Float64" Name="diameter" format="ascii" RangeMin="1e-06" RangeMax="1e-06">
          1e-06 1e-06 1e-06 1e-06 1e-06 1e-06
          1e-06 1e-06 1e-06 1e-06 1e-06 1e-06
          1e-06 1e-06 1e-06 1e-06 1e-06 1e-06
          1e-06 1e-06 1e-06 1e-06 1e-06 1e-06
          1e-06 1e-06 1e-06 1e-06 1e-06 1e-06
          1e-06 1e-06 1e-06 1e-06 1e-06 1e-06
          1e-06 1e-06 1e-06 1e-06 1e-06 1e-06
          1e-06 1e-06 1e-06 1e-06 1e-06 1e-06
          1e-06 1e-06 1e-06 1e-06 1e-06 1e-06
          1e-06 1e-06 1e-06 1e-06 1e-06 1e-06
          1e-06 1e-06 1e-06 1e-06 1e-06 1e-06
          1e-06 1e-06 1e-06 1e-06 1e-06 1e-06
          1e-06 1e-06 1e-06 1e-06 1e-06 1e-06
          1e-06 1e-06 1e-06 1e-06
        </DataArray>
      </PointData>
      <CellData>
      </CellData>
      <Points>
        <DataArray type="Float32" Name="Points" NumberOfComponents="3" format="ascii" RangeMin="5.0952922307e-05" RangeMax="0.00011588247794">
          5.2438332204e-05 8.0483987404e-06 3.4358989069e-05 5.3529100114e-05 6.7907517405e-06 3.5109707824e-05
          4.1059673094e-05 1.3090999346e-05 3.5576224036e-05 4.1808252718e-05 1.3660723198e-05 3.7141493522e-05
          5.9237900132e-05 1.4530164663e-06 3.9807666326e-05 7.8270873928e-05 1.2851970496e-05 4.0837756387e-05
          7.6641263149e-05 1.3665483493e-05 4.0705075662e-05 5.9354908444e-05 1.4728893802e-06 4.1630013584e-05
          3.2703377656e-05 3.0120370866e-05 4.225966768e-05 9.5960902399e-05 2.5837520298e-05 4.3481715693e-05
          2.3480899472e-05 3.8124748244e-05 4.3471736717e-05 9.4469847681e-05 2.4810389732e-05 4.3720010581e-05
          3.3381180401e-05 2.9207889384e-05 4.3689000449e-05 6.5424414061e-05 2.9827753679e-05 4.3711595936e-05
          8.8940774731e-05 1.743717803e-05 4.4495900511e-05 9.7770760476e-05 3.2855790778e-05 4.4717638957e-05
          6.6334177973e-05 3.0295503166e-05 4.5224394853e-05 9.7521442513e-05 3.1208877772e-05 4.5466338634e-05
          2.28137269e-05 3.7621815864e-05 4.5095614041e-05 8.5712847067e-05 3.6454171095e-06 4.6444947657e-05
          8.8726097601e-05 1.7863558242e-05 4.6258606744e-05 3.0234510632e-05 2.0014142137e-05 4.6231591114e-05
          8.0209894804e-05 2.615309495e-05 4.6234064939e-05 2.3487806175e-05 3.6895602534e-05 4.6276956709e-05
          8.7391184934e-05 4.3147338147e-06 4.6709923481e-05 2.6283234547e-05 3.3592605178e-05 4.6768491302e-05
          2.6927587896e-05 1.3214582395e-05 4.7133722546e-05 3.774017614e-06 1.8408034521e-05 4.7361390898e-05
          8.121519204e-05 2.7374955607e-05 4.7145913413e-05 5.5562442867e-05 3.9091439248e-05 4.7026227548e-05
          2.781245712e-05 3.3530362998e-05 4.776480273e-05 3.5161043343e-05 8.4902067101e-06 4.8293019063e-05
          3.0185707146e-05 1.9918203179e-05 4.8054622312e-05 4.446244202e-05 3.583785292e-05 4.8026686272e-05
          2.3324348149e-05 3.656057379e-05 4.8064710427e-05 5.5768825405e-05 3.8369853428e-05 4.8126086767e-05
          3.4720604162e-05 1.0239710718e-05 4.8576355766e-05 2.5959150662e-05 1.2825113117e-05 4.8632213293e-05
          1.7507714801e-05 1.4673146325e-05 4.8763475206e-05 1.7347951143e-05 1.6473175492e-05 4.8500038247e-05
          9.6916977782e-05 2.6555384466e-05 4.8660251196e-05 4.3020838348e-05 3.6675599404e-05 4.8771664297e-05
          3.0857081583e-05 1.2224593775e-05 4.9400554417e-05 3.7870795495e-06 1.8411261408e-05 4.918754712e-05
          3.2255644328e-05 4.6863519856e-06 4.9632650189e-05 6.0359838244e-05 7.7243512351e-06 4.9517308071e-05
          3.1137093174e-05 1.4004884179e-05 4.9695830967e-05 3.1157105695e-05 3.4674831113e-06 5.0434275181e-05
          1.4074786122e-05 2.6215797334e-05 5.0063190429e-05 9.6670984931e-05 2.6558331228e-05 5.0469810958e-05
          6.3220883021e-05 7.663854376e-06 5.0667003961e-05 4.7524139518e-05 8.3655877461e-06 5.0816688599e-05
          1.3946752006e-05 2.7939231586e-05 5.0653448852e-05 6.0692731495e-05 8.7035805336e-06 5.1022405387e-05
          8.7685933977e-05 1.54924453e-06 5.1818726206e-05 4.5837186917e-05 2.3485017664e-06 5.1536830142e-05
          8.7114160124e-05 3.2655309496e-06 5.15688007e-05 9.5315575891e-05 2.6080622774e-05 5.1829851145e-05
          4.6963483328e-05 1.1421507224e-06 5.2318624512e-05 6.3221494202e-05 7.4538816079e-06 5.2481100283e-05
          6.6057989898e-05 9.1270321718e-06 5.2149425755e-05 1.1734199461e-06 9.7264792203e-06 5.21974398e-05
          4.7622292186e-05 8.6842183009e-06 5.2612202126e-05 9.4229311799e-05 3.8741094613e-05 5.2686285926e-05
          9.0856030965e-07 4.144441391e-06 5.333489753e-05 2.663537316e-06 1.0028152246e-05 5.3209158068e-05
          9.5593910373e-05 2.4895427487e-05 5.3191051848e-05 6.6174383392e-05 9.4948991318e-06 5.3934403695e-05
          9.5271752798e-05 3.7951052946e-05 5.3960720834e-05 5.2098344895e-05 3.9919727897e-06 5.4406205891e-05
          1.5351041611e-06 3.1025338103e-06 5.4680993344e-05 4.925385656e-05 3.5805107473e-05 5.5290554883e-05
          5.2325045544e-05 2.6036555028e-06 5.5570770201e-05 4.1089362639e-05 1.8659427951e-05 5.5978511227e-05
          4.2783081881e-05 1.9321325453e-05 5.5810487538e-05 5.1787825214e-05 3.6536855532e-06 5.6119366491e-05
          3.8744947233e-05 2.9153075957e-05 5.6246699387e-05 4.0316601371e-05 2.8267200832e-05 5.6529828726e-05
          4.9472200772e-05 3.493832628e-05 5.6883051002e-05 5.126493852e-05 2.1422231384e-06 5.7000899687e-05
          9.0693847596e-06 3.2332914998e-05 6.6992746724e-05 7.2796756285e-06 3.2053318137e-05 6.7224689701e-05
        </DataArray>
      </Points>
      <Cells>
        <DataArray type="Int64" Name="connectivity" format="ascii" RangeMin="0" RangeMax="81">
          0 1 2 3 4 5
          6 7 8 9 10 11
          12 13 14 15 16 17
          18 19 20 21 22 23
          24 25 26 27 28 29
          30 31 32 33 34 35
          36 37 38 39 40 41
          42 43 44 45 46 47
          48 49 50 51 52 53
          54 55 56 57 58 59
          60 61 62 63 64 65
          66 67 68 69 70 71
          72 73 74 75 76 77
          78 79 80 81
        </DataArray>
        <DataArray type="Int64" Name="offsets" format="ascii" RangeMin="1" RangeMax="82">
          1 2 3 4 5 6
          7 8 9 10 11 12
          13 14 15 16 17 18
          19 20 21 22 23 24
          25 26 27 28 29 30
          31 32 33 34 35 36
          37 38 39 40 41 42
          43 44 45 46 47 48
          49 50 51 52 53 54
          55 56 57 58 59 60
          61 62 63 64 65 66
          67 68 69 70 71 72
          73 74 75 76 77 78
          79 80 81 82
        </DataArray>
        <DataArray type="UInt8" Name="types" format="ascii" RangeMin="1" RangeMax="1">
          1 1 1 1 1 1
          1 1 1 1 1 1
          1 1 1 1 1 1
          1 1 1 1 1 1
          1 1 1 1 1 1
          1 1 1 1 1 1
          1 1 1 1 1 1
          1 1 1 1 1 1
          1 1 1 1 1 1
          1 1 1 1 1 1
          1 1 1 1 1 1
          1 1 1 1 1 1
          1 1 1 1 1 1
          1 1 1 1
        </DataArray>
      </Cells>
    </Piece>
  </UnstructuredGrid>
</VTKFile>
