<?xml version="1.0"?>
<VTKFile type="UnstructuredGrid" version="0.1" byte_order="LittleEndian" header_type="UInt32" compressor="vtkZLibDataCompressor">
  <UnstructuredGrid>
    <Piece NumberOfPoints="82" NumberOfCells="82">
      <PointData>
        <DataArray type="Int32" Name="id" format="ascii" RangeMin="1" RangeMax="143054">
          24 143054 22 29 143052 35
          143049 143048 143045 8 25 16
          33 143044 4 41 143043 143040
          27 3 143039 39 143037 143035
          36 143033 143030 143029 2 5
          143028 143027 30 143026 38 143021
          15 143020 143018 17 143016 143012
          143009 9 143007 10 143005 23
          34 143002 143001 142997 142994 1
          32 11 19 26 142992 142991
          21 142988 28 142987 31 142985
          7 40 142984 142983 6 37
          20 142982 142978 13 18 142976
          142975 12 142973 14
        </DataArray>
        <DataArray type="Int32" Name="type" format="ascii" RangeMin="1" RangeMax="1">
          1 1 1 1 1 1
          1 1 1 1 1 1
          1 1 1 1 1 1
          1 1 1 1 1 1
          1 1 1 1 1 1
          1 1 1 1 1 1
          1 1 1 1 1 1
          1 1 1 1 1 1
          1 1 1 1 1 1
          1 1 1 1 1 1
          1 1 1 1 1 1
          1 1 1 1 1 1
          1 1 1 1 1 1
          1 1 1 1
        </DataArray>
        <DataArray type="Float64" Name="diameter" format="ascii" RangeMin="1e-06" RangeMax="1e-06">
          1e-06 1e-06 1e-06 1e-06 1e-06 1e-06
          1e-06 1e-06 1e-06 1e-06 1e-06 1e-06
          1e-06 1e-06 1e-06 1e-06 1e-06 1e-06
          1e-06 1e-06 1e-06 1e-06 1e-06 1e-06
          1e-06 1e-06 1e-06 1e-06 1e-06 1e-06
          1e-06 1e-06 1e-06 1e-06 1e-06 1e-06
          1e-06 1e-06 1e-06 1e-06 1e-06 1e-06
          1e-06 1e-06 1e-06 1e-06 1e-06 1e-06
          1e-06 1e-06 1e-06 1e-06 1e-06 1e-06
          1e-06 1e-06 1e-06 1e-06 1e-06 1e-06
          1e-06 1e-06 1e-06 1e-06 1e-06 1e-06
          1e-06 1e-06 1e-06 1e-06 1e-06 1e-06
          1e-06 1e-06 1e-06 1e-06 1e-06 1e-06
          1e-06 1e-06 1e-06 1e-06
        </DataArray>
      </PointData>
      <CellData>
      </CellData>
      <Points>
        <DataArray type="Float32" Name="Points" NumberOfComponents="3" format="ascii" RangeMin="4.2456857791e-05" RangeMax="0.00011730750006">
          2.2484313376e-05 3.7986806092e-06 3.5813551222e-05 5.8477868151e-05 2.398716606e-05 6.7166365625e-05
          1.9449607862e-05 8.0112004071e-06 3.9782869862e-05 9.7164142062e-05 3.0031242204e-05 4.0534898289e-05
          2.1852891223e-05 1.5335133867e-05 6.5802065365e-05 5.1546492614e-05 2.2119114874e-05 4.2239185859e-05
          8.0605932453e-05 1.8205633751e-05 6.1912898673e-05 3.3825857827e-05 1.3758852219e-05 6.1393926444e-05
          7.0778805821e-05 2.6277517463e-05 6.1029539211e-05 8.1734367996e-05 8.2100650616e-06 4.2776740884e-05
          7.8469507571e-05 1.5076648197e-05 4.4845528464e-05 5.160353976e-05 2.9412592994e-05 4.4146101573e-05
          2.5269146136e-05 3.5330740502e-05 4.4660922867e-05 9.9011514976e-05 1.4195296899e-05 6.1288359575e-05
          4.4053984311e-05 2.3879131277e-06 4.4632106437e-05 1.6880443582e-05 7.3723763307e-06 4.7091092711e-05
          5.9531925217e-05 1.557818905e-05 6.0154281528e-05 8.1401973148e-05 3.3885866287e-05 5.7650355302e-05
          9.2798691185e-05 1.8159484171e-05 4.5936216338e-05 3.3234224247e-05 3.1006211429e-06 4.6663230023e-05
          6.1668688431e-05 2.8694317734e-05 5.6717304687e-05 6.4674211899e-05 3.5848494008e-05 4.7346653446e-05
          1.2887135199e-05 1.4199174984e-05 5.6304124882e-05 8.4137034719e-05 3.47100613e-05 5.2254265029e-05
          6.4423824369e-05 1.5146738406e-05 4.8848665756e-05 3.2941666177e-06 6.356279755e-06 5.378800779e-05
          7.3086674092e-05 9.1060474006e-06 5.3092535381e-05 6.8105851824e-05 3.9091439248e-05 5.1330916904e-05
          2.0732908524e-05 6.6792290454e-06 4.9769732868e-05 3.8732559915e-05 1.2929903278e-05 4.958165664e-05
          3.4691461224e-06 8.9450641099e-06 5.0958846259e-05 4.0025803173e-05 6.5424023887e-06 5.1555456594e-05
          6.6377193434e-05 2.877395309e-05 5.0496124459e-05 4.1793509808e-06 1.8261624064e-05 5.026389772e-05
          4.3621992518e-05 3.0528364732e-05 4.8723566579e-05 6.6043785409e-06 3.3184012864e-05 5.0219550758e-05
          4.0403876483e-05 1.5274494217e-05 4.9714639317e-05 5.3386887885e-05 2.4512706659e-05 5.0088354328e-05
          9.0118301159e-05 1.0153873518e-05 5.0004902732e-05 7.4277275417e-05 3.5858887713e-05 4.9120353651e-05
          9.7235686553e-05 3.9091439248e-05 5.0448659749e-05 7.4279705586e-05 3.5822075006e-05 5.0446185924e-05
          4.0827879275e-05 1.676876127e-05 5.0175065553e-05 9.6898169431e-05 3.9091439248e-05 4.9289377785e-05
          4.3824904424e-05 3.06059992e-05 5.0036804168e-05 9.1172274551e-05 1.0329713405e-05 5.1125869504e-05
          6.5820662712e-05 2.8938480682e-05 4.9264581321e-05 5.5094762502e-05 2.391569069e-05 5.0836861192e-05
          6.726160791e-06 3.4968026739e-05 5.1090341003e-05 4.0006798372e-05 1.1660351447e-05 4.9997208407e-05
          2.2330365027e-05 5.7959969126e-06 4.999439625e-05 6.4688647399e-05 1.3365051018e-05 4.9047852372e-05
          6.2852093833e-05 3.5940884118e-05 4.7766814532e-05 5.6249414229e-06 1.7283990019e-05 5.1301976782e-05
          3.8326426875e-05 6.9955676736e-06 5.2547173254e-05 4.7782673391e-06 9.1409274319e-06 5.2716968639e-05
          6.7526911153e-05 3.8903919631e-05 5.3521835071e-05 7.3622562923e-05 1.0432499039e-05 5.2457467973e-05
          3.1767300243e-05 3.1232702895e-06 4.8250723921e-05 9.2269183369e-05 1.8300052034e-05 4.8178309953e-05
          2.7794098969e-06 5.4418333093e-06 5.2793406212e-05 1.6870357285e-05 8.7204489319e-06 4.6359171392e-05
          8.4408842667e-05 3.5002380173e-05 5.4536314565e-05 4.4799322495e-05 3.1413346733e-06 4.6619337809e-05
          1.2478758435e-05 1.3645698345e-05 5.5112403061e-05 2.5405008273e-05 3.424652823e-05 4.3697687943e-05
          6.3047606091e-05 2.7843110729e-05 5.6375240092e-05 8.1121084804e-05 3.4457261791e-05 5.6438737374e-05
          5.0125941925e-05 3.0438633985e-05 4.4331503886e-05 7.8151024354e-05 1.4537684365e-05 4.3629977881e-05
          6.0221766034e-05 1.6033993234e-05 5.9025969676e-05 9.7788193671e-05 1.5508818251e-05 6.1451959482e-05
          6.9672045356e-05 2.4869344998e-05 6.1886123149e-05 8.0256337242e-05 7.8794282672e-06 4.4297095883e-05
          5.173876707e-05 2.1973313778e-05 4.0928993258e-05 3.3873835491e-05 1.3659538126e-05 6.371679774e-05
          8.0054167483e-05 1.9765197067e-05 6.3186424086e-05 9.8111457191e-05 2.8764809031e-05 4.1948005673e-05
          1.964171679e-05 8.7389325927e-06 4.1946757847e-05 2.3337277526e-05 1.4279538846e-05 6.6433756729e-05
          2.1811218176e-05 2.2538279154e-06 3.7017398427e-05 5.7428740547e-05 2.5388897484e-05 6.8185509008e-05
        </DataArray>
      </Points>
      <Cells>
        <DataArray type="Int64" Name="connectivity" format="ascii" RangeMin="0" RangeMax="81">
          0 1 2 3 4 5
          6 7 8 9 10 11
          12 13 14 15 16 17
          18 19 20 21 22 23
          24 25 26 27 28 29
          30 31 32 33 34 35
          36 37 38 39 40 41
          42 43 44 45 46 47
          48 49 50 51 52 53
          54 55 56 57 58 59
          60 61 62 63 64 65
          66 67 68 69 70 71
          72 73 74 75 76 77
          78 79 80 81
        </DataArray>
        <DataArray type="Int64" Name="offsets" format="ascii" RangeMin="1" RangeMax="82">
          1 2 3 4 5 6
          7 8 9 10 11 12
          13 14 15 16 17 18
          19 20 21 22 23 24
          25 26 27 28 29 30
          31 32 33 34 35 36
          37 38 39 40 41 42
          43 44 45 46 47 48
          49 50 51 52 53 54
          55 56 57 58 59 60
          61 62 63 64 65 66
          67 68 69 70 71 72
          73 74 75 76 77 78
          79 80 81 82
        </DataArray>
        <DataArray type="UInt8" Name="types" format="ascii" RangeMin="1" RangeMax="1">
          1 1 1 1 1 1
          1 1 1 1 1 1
          1 1 1 1 1 1
          1 1 1 1 1 1
          1 1 1 1 1 1
          1 1 1 1 1 1
          1 1 1 1 1 1
          1 1 1 1 1 1
          1 1 1 1 1 1
          1 1 1 1 1 1
          1 1 1 1 1 1
          1 1 1 1 1 1
          1 1 1 1 1 1
          1 1 1 1
        </DataArray>
      </Cells>
    </Piece>
  </UnstructuredGrid>
</VTKFile>
