<?xml version="1.0"?>
<VTKFile type="UnstructuredGrid" version="0.1" byte_order="LittleEndian" header_type="UInt32" compressor="vtkZLibDataCompressor">
  <UnstructuredGrid>
    <Piece NumberOfPoints="20" NumberOfCells="20">
      <PointData>
        <DataArray type="Int32" Name="id" format="ascii" RangeMin="1" RangeMax="12028">
          12011 12013 4 6 12014 9
          5 12019 12016 12020 10 7
          12023 1 2 12025 3 12026
          12028 8
        </DataArray>
        <DataArray type="Int32" Name="type" format="ascii" RangeMin="1" RangeMax="1">
          1 1 1 1 1 1
          1 1 1 1 1 1
          1 1 1 1 1 1
          1 1
        </DataArray>
        <DataArray type="Float64" Name="diameter" format="ascii" RangeMin="1e-06" RangeMax="1e-06">
          1e-06 1e-06 1e-06 1e-06 1e-06 1e-06
          1e-06 1e-06 1e-06 1e-06 1e-06 1e-06
          1e-06 1e-06 1e-06 1e-06 1e-06 1e-06
          1e-06 1e-06
        </DataArray>
      </PointData>
      <CellData>
      </CellData>
      <Points>
        <DataArray type="Float32" Name="Points" NumberOfComponents="3" format="ascii" RangeMin="2.0384321278e-05" RangeMax="9.1421332367e-05">
          1.7028587536e-05 1.1129561244e-05 1.2963899962e-06 4.2400104576e-05 4.2753740672e-06 3.3007954698e-06
          1.7165688405e-05 1.130686087e-05 3.1087909065e-06 4.2609182856e-05 5.3596500038e-06 4.7553266995e-06
          7.3081610026e-05 7.021710644e-06 4.6085774557e-06 7.4321731518e-05 6.2876065385e-06 5.7302804635e-06
          3.589559492e-05 2.1289488359e-05 7.4955933087e-06 7.3268565757e-05 1.8676004402e-05 9.4147135314e-06
          3.6017489037e-05 2.1161555196e-05 9.3132302936e-06 8.8829059678e-05 5.4795491451e-06 1.140580116e-05
          9.0589375759e-05 5.0253379413e-06 1.1232586075e-05 7.3140312452e-05 1.9387000066e-05 1.1091933629e-05
          6.1187538449e-06 2.5129720598e-05 1.8707838535e-05 6.3893730839e-06 2.3347982278e-05 1.9003133275e-05
          3.4944550862e-05 9.3084581749e-06 2.0446248527e-05 3.5249628127e-05 9.2757663879e-06 2.2246495064e-05
          2.3034734113e-05 1.8011012799e-05 2.2382471798e-05 2.302627945e-05 1.8018507035e-05 2.4208642571e-05
          6.8213288614e-05 2.7850148399e-05 2.7560421586e-05 6.9127134338e-05 2.8009279049e-05 2.913350545e-05
        </DataArray>
      </Points>
      <Cells>
        <DataArray type="Int64" Name="connectivity" format="ascii" RangeMin="0" RangeMax="19">
          0 1 2 3 4 5
          6 7 8 9 10 11
          12 13 14 15 16 17
          18 19
        </DataArray>
        <DataArray type="Int64" Name="offsets" format="ascii" RangeMin="1" RangeMax="20">
          1 2 3 4 5 6
          7 8 9 10 11 12
          13 14 15 16 17 18
          19 20
        </DataArray>
        <DataArray type="UInt8" Name="types" format="ascii" RangeMin="1" RangeMax="1">
          1 1 1 1 1 1
          1 1 1 1 1 1
          1 1 1 1 1 1
          1 1
        </DataArray>
      </Cells>
    </Piece>
  </UnstructuredGrid>
</VTKFile>
