<?xml version="1.0"?>
<VTKFile type="UnstructuredGrid" version="0.1" byte_order="LittleEndian" header_type="UInt32" compressor="vtkZLibDataCompressor">
  <UnstructuredGrid>
    <Piece NumberOfPoints="82" NumberOfCells="82">
      <PointData>
        <DataArray type="Int32" Name="id" format="ascii" RangeMin="1" RangeMax="530677">
          530597 33 23 19 530598 5
          530599 530604 530602 10 13 530606
          530609 38 8 530610 530620 530616
          39 530619 41 7 530612 22
          21 37 530624 31 530621 28
          29 24 530625 530628 36 530622
          530629 3 34 35 530651 40
          20 16 530637 530630 530633 530646
          530631 530654 530634 17 530644 14
          530652 530653 530648 530659 4 15
          530660 25 11 12 1 6
          530665 530661 530662 27 2 530667
          32 530669 30 18 530673 530672
          530675 26 9 530677
        </DataArray>
        <DataArray type="Int32" Name="type" format="ascii" RangeMin="1" RangeMax="1">
          1 1 1 1 1 1
          1 1 1 1 1 1
          1 1 1 1 1 1
          1 1 1 1 1 1
          1 1 1 1 1 1
          1 1 1 1 1 1
          1 1 1 1 1 1
          1 1 1 1 1 1
          1 1 1 1 1 1
          1 1 1 1 1 1
          1 1 1 1 1 1
          1 1 1 1 1 1
          1 1 1 1 1 1
          1 1 1 1
        </DataArray>
        <DataArray type="Float64" Name="diameter" format="ascii" RangeMin="1e-06" RangeMax="1e-06">
          1e-06 1e-06 1e-06 1e-06 1e-06 1e-06
          1e-06 1e-06 1e-06 1e-06 1e-06 1e-06
          1e-06 1e-06 1e-06 1e-06 1e-06 1e-06
          1e-06 1e-06 1e-06 1e-06 1e-06 1e-06
          1e-06 1e-06 1e-06 1e-06 1e-06 1e-06
          1e-06 1e-06 1e-06 1e-06 1e-06 1e-06
          1e-06 1e-06 1e-06 1e-06 1e-06 1e-06
          1e-06 1e-06 1e-06 1e-06 1e-06 1e-06
          1e-06 1e-06 1e-06 1e-06 1e-06 1e-06
          1e-06 1e-06 1e-06 1e-06 1e-06 1e-06
          1e-06 1e-06 1e-06 1e-06 1e-06 1e-06
          1e-06 1e-06 1e-06 1e-06 1e-06 1e-06
          1e-06 1e-06 1e-06 1e-06 1e-06 1e-06
          1e-06 1e-06 1e-06 1e-06
        </DataArray>
      </PointData>
      <CellData>
      </CellData>
      <Points>
        <DataArray type="Float32" Name="Points" NumberOfComponents="3" format="ascii" RangeMin="4.6651676748e-05" RangeMax="0.00011312192738">
          2.3217024136e-05 2.2893256755e-05 3.4661123209e-05 2.3007987693e-05 2.2287715183e-05 3.6371282476e-05
          4.7120185627e-05 1.4713895325e-05 3.6778004869e-05 9.4421404356e-05 3.1602939998e-05 3.78535442e-05
          4.7246328904e-05 1.4657503016e-05 3.8598976971e-05 7.9072946392e-05 8.7698826974e-06 3.9354632463e-05
          9.4319169875e-05 3.1787887565e-05 3.9667484089e-05 3.0327646527e-05 3.8647638576e-05 4.0753104258e-05
          7.9075005488e-05 8.4828079707e-06 4.1158131353e-05 5.4043783166e-05 3.4815227991e-05 4.160005119e-05
          3.1034294807e-05 3.9040460251e-05 4.2390591261e-05 5.535004675e-05 3.407967597e-05 4.2642961489e-05
          4.4976063691e-06 3.2887841371e-05 4.3387408368e-05 4.3881514102e-06 3.4695269278e-05 4.315023034e-05
          2.8680786272e-05 4.6439822654e-06 4.4913002057e-05 8.573026571e-05 3.0267216061e-05 4.4908923883e-05
          3.5101345475e-06 8.6973650468e-06 4.5699165639e-05 4.3228268623e-05 1.0091213881e-05 4.5557611884e-05
          8.5419873358e-05 3.1751133065e-05 4.5927095925e-05 7.3528797657e-05 1.6927654087e-06 4.6043754992e-05
          3.2199088309e-05 3.308954183e-05 4.6302371629e-05 7.2821530921e-05 3.1041838611e-06 4.6961740736e-05
          2.8736994864e-05 3.9432902668e-06 4.6598499466e-05 3.6344283671e-06 8.3354143499e-06 4.7484823881e-05
          4.3617841584e-05 1.0729077076e-05 4.7223860747e-05 5.1212995459e-05 3.4039734601e-05 4.7073255701e-05
          7.0372363552e-05 1.0481963727e-05 4.7810724936e-05 5.5407253967e-05 1.9138286007e-05 4.794783672e-05
          3.3281736251e-05 3.2929034205e-05 4.7764264309e-05 6.7755521741e-05 3.6856898078e-05 4.7990721214e-05
          5.525252709e-05 2.133313501e-05 4.8382502428e-05 1.8518163415e-05 3.6560675653e-05 4.8386402341e-05
          5.5118431192e-05 1.7563141228e-05 4.882563735e-05 5.0899863709e-05 2.6094261557e-05 4.8674795835e-05
          9.3684488093e-05 3.4011285607e-05 4.8574485845e-05 5.0351380196e-05 3.4529315599e-05 4.8607191275e-05
          1.7144484445e-05 3.5520515667e-05 4.8991467338e-05 6.9087014708e-05 1.0349473996e-05 4.9101210607e-05
          3.2341737096e-05 1.4500184079e-05 4.9212136219e-05 5.1947099564e-05 2.745943857e-05 4.9286853027e-05
          6.0602134909e-05 3.0999297451e-05 4.934298704e-05 7.4082614447e-05 1.1621733393e-05 4.9628863053e-05
          6.9475769124e-05 1.3362036043e-05 4.9812439102e-05 2.0869973014e-05 1.9120594516e-05 4.9991736887e-05
          5.6380162277e-05 2.1032146833e-05 4.9787089665e-05 6.7459390266e-05 3.6315996113e-05 4.97096662e-05
          6.9472182076e-05 1.5176521629e-05 5.0018974434e-05 5.7841974922e-05 1.5684772734e-05 5.0017573813e-05
          9.3903749075e-05 3.3275908208e-05 5.0231643399e-05 9.6556985227e-05 2.8594536161e-06 5.0973987527e-05
          3.1665240385e-05 1.558954682e-05 5.05123935e-05 4.731613808e-05 1.9492181309e-05 5.0969130825e-05
          1.9394345145e-05 1.9969460482e-05 5.0652779464e-05 6.0264763306e-05 3.2021856896e-05 5.0817972806e-05
          1.5590483599e-05 3.6879664549e-05 5.0923237723e-05 7.4247087468e-05 1.1356366485e-05 5.1428185543e-05
          4.9119706091e-05 1.9775650799e-05 5.1011746109e-05 2.4265942557e-05 2.2839962185e-05 5.1114715461e-05
          1.3965404833e-05 3.6052824726e-05 5.1025646826e-05 5.7680092141e-05 1.5996190996e-05 5.1809733122e-05
          9.2102767667e-05 3.1739076803e-05 5.1861505199e-05 5.529136979e-05 5.9675585362e-06 5.2014624089e-05
          2.4185699658e-05 2.1329169613e-05 5.2137504099e-05 9.7122494481e-05 2.3679629066e-06 5.2639421483e-05
          7.5845450738e-06 8.7132702902e-06 5.2850460634e-05 9.2247995781e-05 3.3220261685e-05 5.29198187e-05
          1.7696469513e-05 2.8871598261e-05 5.326104656e-05 5.5475091358e-05 6.0764768932e-06 5.3828298405e-05
          6.4628848122e-06 9.6774492704e-06 5.3921565268e-05 8.908687596e-05 1.7712292902e-05 5.3908956033e-05
          1.8459380954e-05 2.7490628781e-05 5.418078581e-05 8.95043122e-05 1.8955521227e-05 5.5179843912e-05
          1.858505675e-05 1.0497468793e-05 5.6144646805e-05 2.0284991479e-05 1.1163599993e-05 5.6105625845e-05
          5.457860243e-05 2.0345891244e-05 5.6178043451e-05 9.5481038443e-05 1.6163015971e-05 5.6821379985e-05
          9.6452429716e-05 1.4678395019e-05 5.7254204876e-05 5.5234944739e-05 2.1404577637e-05 5.7513494539e-05
          2.3182701625e-05 1.2965876522e-05 5.9889283875e-05 2.2645603167e-05 1.3545356524e-05 6.1535720306e-05
          8.3988896222e-05 3.2363528589e-05 6.1902057496e-05 8.3410508523e-05 3.3017713577e-05 6.3505969592e-05
        </DataArray>
      </Points>
      <Cells>
        <DataArray type="Int64" Name="connectivity" format="ascii" RangeMin="0" RangeMax="81">
          0 1 2 3 4 5
          6 7 8 9 10 11
          12 13 14 15 16 17
          18 19 20 21 22 23
          24 25 26 27 28 29
          30 31 32 33 34 35
          36 37 38 39 40 41
          42 43 44 45 46 47
          48 49 50 51 52 53
          54 55 56 57 58 59
          60 61 62 63 64 65
          66 67 68 69 70 71
          72 73 74 75 76 77
          78 79 80 81
        </DataArray>
        <DataArray type="Int64" Name="offsets" format="ascii" RangeMin="1" RangeMax="82">
          1 2 3 4 5 6
          7 8 9 10 11 12
          13 14 15 16 17 18
          19 20 21 22 23 24
          25 26 27 28 29 30
          31 32 33 34 35 36
          37 38 39 40 41 42
          43 44 45 46 47 48
          49 50 51 52 53 54
          55 56 57 58 59 60
          61 62 63 64 65 66
          67 68 69 70 71 72
          73 74 75 76 77 78
          79 80 81 82
        </DataArray>
        <DataArray type="UInt8" Name="types" format="ascii" RangeMin="1" RangeMax="1">
          1 1 1 1 1 1
          1 1 1 1 1 1
          1 1 1 1 1 1
          1 1 1 1 1 1
          1 1 1 1 1 1
          1 1 1 1 1 1
          1 1 1 1 1 1
          1 1 1 1 1 1
          1 1 1 1 1 1
          1 1 1 1 1 1
          1 1 1 1 1 1
          1 1 1 1 1 1
          1 1 1 1 1 1
          1 1 1 1
        </DataArray>
      </Cells>
    </Piece>
  </UnstructuredGrid>
</VTKFile>
