<?xml version="1.0"?>
<VTKFile type="UnstructuredGrid" version="0.1" byte_order="LittleEndian" header_type="UInt32" compressor="vtkZLibDataCompressor">
  <UnstructuredGrid>
    <Piece NumberOfPoints="82" NumberOfCells="82">
      <PointData>
        <DataArray type="Int32" Name="id" format="ascii" RangeMin="1" RangeMax="154493">
          154493 24 8 154491 11 38
          154490 36 154489 154485 5 33
          41 7 34 154484 154482 15
          154481 154480 4 154478 154475 154473
          17 154471 154470 154469 21 154466
          30 154464 154460 154459 154456 19
          2 10 154455 1 35 154453
          28 23 154452 154450 22 16
          154449 154448 154443 20 154441 25
          154437 154433 9 29 3 154430
          32 154427 26 154426 154425 31
          154424 18 27 40 154423 39
          13 154420 154418 154417 37 6
          12 154415 14 154414
        </DataArray>
        <DataArray type="Int32" Name="type" format="ascii" RangeMin="1" RangeMax="1">
          1 1 1 1 1 1
          1 1 1 1 1 1
          1 1 1 1 1 1
          1 1 1 1 1 1
          1 1 1 1 1 1
          1 1 1 1 1 1
          1 1 1 1 1 1
          1 1 1 1 1 1
          1 1 1 1 1 1
          1 1 1 1 1 1
          1 1 1 1 1 1
          1 1 1 1 1 1
          1 1 1 1 1 1
          1 1 1 1
        </DataArray>
        <DataArray type="Float64" Name="diameter" format="ascii" RangeMin="1e-06" RangeMax="1e-06">
          1e-06 1e-06 1e-06 1e-06 1e-06 1e-06
          1e-06 1e-06 1e-06 1e-06 1e-06 1e-06
          1e-06 1e-06 1e-06 1e-06 1e-06 1e-06
          1e-06 1e-06 1e-06 1e-06 1e-06 1e-06
          1e-06 1e-06 1e-06 1e-06 1e-06 1e-06
          1e-06 1e-06 1e-06 1e-06 1e-06 1e-06
          1e-06 1e-06 1e-06 1e-06 1e-06 1e-06
          1e-06 1e-06 1e-06 1e-06 1e-06 1e-06
          1e-06 1e-06 1e-06 1e-06 1e-06 1e-06
          1e-06 1e-06 1e-06 1e-06 1e-06 1e-06
          1e-06 1e-06 1e-06 1e-06 1e-06 1e-06
          1e-06 1e-06 1e-06 1e-06 1e-06 1e-06
          1e-06 1e-06 1e-06 1e-06 1e-06 1e-06
          1e-06 1e-06 1e-06 1e-06
        </DataArray>
      </PointData>
      <CellData>
      </CellData>
      <Points>
        <DataArray type="Float32" Name="Points" NumberOfComponents="3" format="ascii" RangeMin="4.4800640387e-05" RangeMax="0.00011551692334">
          5.3826370277e-05 2.9668808565e-05 6.4540465246e-05 2.8052618291e-05 5.7188799474e-06 3.9415881474e-05
          8.2917082182e-05 9.0856030965e-07 4.2886102165e-05 3.1597137422e-05 9.0856030965e-07 6.3747211243e-05
          1.8304883724e-06 1.5016969883e-05 4.2169151129e-05 3.7041536416e-05 3.229243157e-05 4.3454117986e-05
          6.2780178268e-05 1.7827280317e-05 6.3162951847e-05 5.9578076616e-05 5.8936775531e-06 4.5051172492e-05
          9.4266724773e-05 1.926036748e-05 6.2811726821e-05 3.8649588532e-05 1.5972351321e-05 5.7518016547e-05
          4.1215160309e-05 1.3777952518e-05 4.6197572374e-05 2.3873120881e-05 2.6240397347e-05 4.6610715799e-05
          1.3090575521e-05 3.2380178254e-06 4.6856788686e-05 5.5588869145e-05 1.8825439838e-05 4.7209410695e-05
          9.1624006018e-06 3.1963900256e-05 4.7348363296e-05 6.7064189352e-05 2.5532230211e-05 5.469606549e-05
          9.3492562883e-05 3.9091439248e-05 5.416467684e-05 4.2011914047e-05 2.4597507945e-05 4.7967900173e-05
          9.12277319e-05 2.6165098461e-05 5.3036350437e-05 8.83672692e-05 2.4132659746e-05 5.4757776525e-05
          4.6377401304e-05 7.9112624007e-06 4.8447443987e-05 1.1137454749e-05 1.2954595149e-05 5.3156800277e-05
          7.388220547e-05 8.9374634626e-06 5.2536281146e-05 3.16104597e-05 1.130658984e-05 5.1191778766e-05
          6.6996137321e-05 3.578088581e-05 4.7883680963e-05 3.4056898585e-05 4.0092463678e-06 5.202291868e-05
          8.9282199042e-05 3.7891717511e-05 5.1015173085e-05 8.8161206804e-05 3.5300221498e-05 5.1759274356e-05
          3.7168845211e-06 1.1844575965e-05 4.9571244745e-05 8.1643323938e-05 1.7309475879e-05 5.1940700359e-05
          7.0757421781e-05 3.0693659937e-05 5.0580216339e-05 7.1593167377e-05 3.6918398109e-05 5.1718045142e-05
          6.4333456976e-05 3.2534579077e-05 5.0503451348e-05 2.5657562219e-05 2.051451338e-05 5.006614083e-05
          5.2182960644e-05 3.1648931326e-05 5.1171296946e-05 6.1885912146e-05 3.7510020775e-05 4.8785746912e-05
          2.8621625461e-05 4.4323005568e-06 5.1296901802e-05 9.3667506007e-05 1.4620487491e-05 4.9879865401e-05
          9.0242981969e-05 2.8591772207e-05 5.0597518566e-05 5.5859959502e-06 2.0450719603e-05 5.0424838264e-05
          6.0784743255e-05 2.7570476959e-05 4.967057248e-05 5.975563181e-05 2.7073325327e-05 5.0594928325e-05
          9.0100438683e-05 2.8226542781e-05 4.9313894124e-05 5.1923594583e-05 3.1716794183e-05 4.9864876928e-05
          4.441020792e-06 1.9275839804e-05 5.0002516218e-05 9.3265080068e-05 1.4548742001e-05 5.1159735449e-05
          2.5488612664e-05 1.8753382392e-05 5.1018796512e-05 6.2553095631e-05 3.2768828532e-05 5.0671085774e-05
          2.858737389e-05 4.4459588935e-06 4.9971069529e-05 6.0902853875e-05 3.7723570131e-05 5.0009894039e-05
          7.0477188274e-05 3.1058843888e-05 4.9312977353e-05 7.0983376645e-05 3.666556222e-05 5.0515325711e-05
          5.451330253e-06 1.1591934708e-05 5.0003982324e-05 8.1574988144e-05 1.75604182e-05 5.0633108913e-05
          6.7279339419e-05 3.6250974517e-05 5.0005473895e-05 4.662667925e-05 9.537357073e-06 4.8154535762e-05
          8.8433043857e-05 3.7081012124e-05 5.195939957e-05 8.9452085376e-05 3.7860903831e-05 5.3333198593e-05
          3.2423075027e-05 3.4631202652e-06 5.3129046137e-05 4.2292573198e-05 2.5746163374e-05 4.7076191549e-05
          3.2040308724e-05 1.0794092304e-05 5.3391075198e-05 8.8999877335e-06 3.0786366551e-05 4.6477380238e-05
          7.2398361226e-05 9.9657036117e-06 5.2760697145e-05 5.6957833294e-05 1.865817103e-05 4.6512333938e-05
          1.3902433238e-05 4.6389673116e-06 4.6512242989e-05 1.1431046005e-05 1.4755652046e-05 5.3585899877e-05
          2.4194621801e-05 2.5249775717e-05 4.5610606321e-05 8.8780216174e-05 2.4273447707e-05 5.34844512e-05
          8.9611414296e-05 2.679993122e-05 5.4101630667e-05 9.4622300821e-05 3.8209233026e-05 5.3883377404e-05
          4.2889634642e-05 1.4073865714e-05 4.6031538659e-05 6.7103050242e-05 2.6217105187e-05 5.6888537074e-05
          4.0023645852e-05 1.6881567717e-05 5.723041977e-05 5.8187146351e-05 5.0592821026e-06 4.4712047384e-05
          3.569508408e-05 3.1157494959e-05 4.3470372475e-05 3.3310348044e-06 1.5132302906e-05 4.3703603296e-05
          9.5504859928e-05 1.8327413272e-05 6.2346509367e-05 6.2215585785e-05 1.6127221897e-05 6.3307888922e-05
          3.0938921554e-05 2.3452291771e-06 6.4342813857e-05 8.2027356257e-05 1.4332958926e-06 4.2185260099e-05
          5.3893854783e-05 3.023802492e-05 6.677438796e-05 2.9689999792e-05 5.3441140153e-06 4.0632516175e-05
        </DataArray>
      </Points>
      <Cells>
        <DataArray type="Int64" Name="connectivity" format="ascii" RangeMin="0" RangeMax="81">
          0 1 2 3 4 5
          6 7 8 9 10 11
          12 13 14 15 16 17
          18 19 20 21 22 23
          24 25 26 27 28 29
          30 31 32 33 34 35
          36 37 38 39 40 41
          42 43 44 45 46 47
          48 49 50 51 52 53
          54 55 56 57 58 59
          60 61 62 63 64 65
          66 67 68 69 70 71
          72 73 74 75 76 77
          78 79 80 81
        </DataArray>
        <DataArray type="Int64" Name="offsets" format="ascii" RangeMin="1" RangeMax="82">
          1 2 3 4 5 6
          7 8 9 10 11 12
          13 14 15 16 17 18
          19 20 21 22 23 24
          25 26 27 28 29 30
          31 32 33 34 35 36
          37 38 39 40 41 42
          43 44 45 46 47 48
          49 50 51 52 53 54
          55 56 57 58 59 60
          61 62 63 64 65 66
          67 68 69 70 71 72
          73 74 75 76 77 78
          79 80 81 82
        </DataArray>
        <DataArray type="UInt8" Name="types" format="ascii" RangeMin="1" RangeMax="1">
          1 1 1 1 1 1
          1 1 1 1 1 1
          1 1 1 1 1 1
          1 1 1 1 1 1
          1 1 1 1 1 1
          1 1 1 1 1 1
          1 1 1 1 1 1
          1 1 1 1 1 1
          1 1 1 1 1 1
          1 1 1 1 1 1
          1 1 1 1 1 1
          1 1 1 1 1 1
          1 1 1 1 1 1
          1 1 1 1
        </DataArray>
      </Cells>
    </Piece>
  </UnstructuredGrid>
</VTKFile>
