<?xml version="1.0"?>
<VTKFile type="UnstructuredGrid" version="0.1" byte_order="LittleEndian" header_type="UInt32" compressor="vtkZLibDataCompressor">
  <UnstructuredGrid>
    <Piece NumberOfPoints="82" NumberOfCells="82">
      <PointData>
        <DataArray type="Int32" Name="id" format="ascii" RangeMin="1" RangeMax="398856">
          398777 9 398778 11 30 398779
          398783 8 2 7 6 398789
          398784 398791 398786 398787 398790 37
          31 1 398796 398797 13 26
          398795 398809 29 398806 398807 398810
          28 398805 398815 25 15 398803
          398802 17 3 18 34 16
          398831 398823 398824 41 398828 5
          398829 398825 398834 398826 21 24
          398830 19 22 398836 14 398837
          12 4 20 398843 36 32
          38 33 398842 398847 398845 398848
          23 398853 35 10 39 398849
          398854 27 40 398856
        </DataArray>
        <DataArray type="Int32" Name="type" format="ascii" RangeMin="1" RangeMax="1">
          1 1 1 1 1 1
          1 1 1 1 1 1
          1 1 1 1 1 1
          1 1 1 1 1 1
          1 1 1 1 1 1
          1 1 1 1 1 1
          1 1 1 1 1 1
          1 1 1 1 1 1
          1 1 1 1 1 1
          1 1 1 1 1 1
          1 1 1 1 1 1
          1 1 1 1 1 1
          1 1 1 1 1 1
          1 1 1 1
        </DataArray>
        <DataArray type="Float64" Name="diameter" format="ascii" RangeMin="1e-06" RangeMax="1e-06">
          1e-06 1e-06 1e-06 1e-06 1e-06 1e-06
          1e-06 1e-06 1e-06 1e-06 1e-06 1e-06
          1e-06 1e-06 1e-06 1e-06 1e-06 1e-06
          1e-06 1e-06 1e-06 1e-06 1e-06 1e-06
          1e-06 1e-06 1e-06 1e-06 1e-06 1e-06
          1e-06 1e-06 1e-06 1e-06 1e-06 1e-06
          1e-06 1e-06 1e-06 1e-06 1e-06 1e-06
          1e-06 1e-06 1e-06 1e-06 1e-06 1e-06
          1e-06 1e-06 1e-06 1e-06 1e-06 1e-06
          1e-06 1e-06 1e-06 1e-06 1e-06 1e-06
          1e-06 1e-06 1e-06 1e-06 1e-06 1e-06
          1e-06 1e-06 1e-06 1e-06 1e-06 1e-06
          1e-06 1e-06 1e-06 1e-06 1e-06 1e-06
          1e-06 1e-06 1e-06 1e-06
        </DataArray>
      </PointData>
      <CellData>
      </CellData>
      <Points>
        <DataArray type="Float32" Name="Points" NumberOfComponents="3" format="ascii" RangeMin="4.4480371774e-05" RangeMax="0.00011688211526">
          5.6822773331e-05 3.072963591e-05 3.5545090213e-05 5.8238238125e-05 3.0771072488e-05 3.5698245483e-05
          4.7171033657e-05 3.7215428165e-05 3.7099016481e-05 2.5267585443e-05 2.5813807952e-05 3.7371264625e-05
          4.6845678298e-05 3.8051763113e-05 3.7689525925e-05 2.5117809855e-05 2.5570250727e-05 4.017494939e-05
          5.3645999287e-05 2.6189118216e-06 4.2396717618e-05 5.3523002862e-05 3.2819327771e-06 4.3120813643e-05
          1.7843464093e-06 1.0666299204e-06 4.4431766582e-05 7.8055847553e-05 2.7544474506e-06 4.438103133e-05
          9.1823436378e-05 3.2311974792e-05 4.4218602852e-05 2.0919220333e-05 2.1755015041e-05 4.5814769692e-05
          9.0024041128e-05 3.2207892218e-05 4.5512475481e-05 4.0426504711e-05 2.5316283427e-05 4.6392931836e-05
          1.9388817236e-06 9.0856030965e-07 4.722374797e-05 7.8416996985e-05 3.3468938909e-06 4.7070294386e-05
          1.224902735e-05 1.3708590814e-05 4.7300389269e-05 8.4086968855e-05 3.6492696381e-05 4.6430515795e-05
          1.1185282347e-05 1.5152193555e-05 4.6646058763e-05 2.0970735932e-05 2.1828900572e-05 4.6810087952e-05
          2.4451361242e-05 8.140988939e-06 4.8335186875e-05 3.8187918108e-05 2.2630563763e-05 4.8325669923e-05
          4.0288778109e-05 2.4577673685e-05 4.7057419579e-05 1.7029615265e-05 3.6568301311e-06 4.7816611186e-05
          8.4963270638e-05 3.5523251427e-05 4.8706173402e-05 3.8136324292e-05 3.6983172322e-05 4.8726957175e-05
          2.4262604711e-05 6.4921237026e-06 4.8097186664e-05 7.0325309935e-05 2.1846484742e-05 4.9279598898e-05
          9.6011674032e-05 2.3032333047e-05 4.9082398618e-05 4.6891436796e-05 3.7500954932e-05 4.9413360102e-05
          8.1812453573e-05 4.725636245e-06 4.8932561185e-05 5.4113104852e-05 1.7394648239e-05 4.9533919082e-05
          9.0019180789e-05 1.8797805751e-05 4.9595586461e-05 5.3676514653e-05 1.9167884602e-05 4.854076542e-05
          3.8509424485e-05 2.1358100639e-05 4.8595513363e-05 8.1821832282e-05 2.9030147743e-06 5.0006543461e-05
          1.7853626559e-05 4.0513150452e-06 4.9997881433e-05 3.8737602154e-05 1.1872662071e-05 4.903172885e-05
          6.8942346843e-05 2.234135718e-05 4.9364742154e-05 9.4601302408e-05 2.2954862288e-05 4.9239923101e-05
          3.7620102376e-05 3.7141620851e-05 4.9552123528e-05 4.570283636e-05 3.8298730942e-05 4.954729593e-05
          9.1192690888e-05 3.8827576645e-05 5.0004749937e-05 8.2210288383e-05 1.8020599555e-06 5.0008286053e-05
          9.2214766482e-05 3.1087643038e-06 4.9995232985e-05 1.5098224139e-05 1.5577683371e-05 5.0393475249e-05
          4.04009661e-05 1.7232794562e-05 4.9991540436e-05 9.0074354375e-05 1.8794557036e-05 5.0580976676e-05
          3.0289093047e-05 2.1582194677e-05 4.999020166e-05 3.8802761992e-05 1.1177865417e-05 4.9999340263e-05
          7.068895502e-05 1.3312887859e-05 4.9993377615e-05 1.6038273316e-05 1.4033550542e-05 4.9992297136e-05
          4.041054126e-05 1.5428910046e-05 5.0656035455e-05 2.9452045055e-05 2.0078701709e-05 5.0861668569e-05
          1.7132762878e-05 2.8443979318e-05 4.9991445849e-05 9.3134447525e-05 1.887998792e-06 5.1114704547e-05
          1.878513649e-05 2.7748572393e-05 5.1019433158e-05 5.8212677686e-05 3.5934623156e-05 5.0335853302e-05
          5.7378721976e-05 3.7532354327e-05 5.1041228289e-05 5.0215017836e-05 9.0856030965e-07 5.0876828027e-05
          8.2995378762e-05 9.7357860795e-07 5.1673865528e-05 4.8883084673e-05 1.5082554228e-06 5.152691665e-05
          7.1166425187e-05 1.1907509361e-05 5.1617316785e-05 3.0034541851e-05 3.1822859455e-05 5.0526949053e-05
          9.1236994194e-05 3.8708483771e-05 5.1786530094e-05 2.8113145163e-05 9.8454138424e-06 5.2996150771e-05
          2.9474804251e-05 3.1835497794e-05 5.3265215683e-05 1.7793548977e-05 5.9927979237e-06 5.3573930927e-05
          2.7345078706e-05 1.1347480722e-05 5.2695362683e-05 5.0831044064e-05 3.294166163e-05 5.3369967645e-05
          1.6836227587e-05 4.8847796279e-06 5.3665196901e-05 6.6238178988e-05 1.963134855e-05 5.3892577853e-05
          5.7409015426e-05 3.7640886148e-05 5.5369131587e-05 9.6820804174e-05 2.7672018405e-05 5.4951909988e-05
          5.061633783e-05 3.3900203562e-05 5.5909487855e-05 6.6166787292e-05 1.9752313165e-05 5.671337567e-05
          9.7889795143e-05 2.8599981306e-05 5.7105673477e-05 5.7096040109e-05 3.7903850171e-05 5.6269600464e-05
          7.1135975304e-05 3.8462589146e-05 5.619919466e-05 9.5567505923e-05 3.3314521716e-05 5.7452391047e-05
          7.2608519986e-05 3.8568079617e-05 5.8274144976e-05 9.5276678621e-05 3.3034611988e-05 5.835408956e-05
        </DataArray>
      </Points>
      <Cells>
        <DataArray type="Int64" Name="connectivity" format="ascii" RangeMin="0" RangeMax="81">
          0 1 2 3 4 5
          6 7 8 9 10 11
          12 13 14 15 16 17
          18 19 20 21 22 23
          24 25 26 27 28 29
          30 31 32 33 34 35
          36 37 38 39 40 41
          42 43 44 45 46 47
          48 49 50 51 52 53
          54 55 56 57 58 59
          60 61 62 63 64 65
          66 67 68 69 70 71
          72 73 74 75 76 77
          78 79 80 81
        </DataArray>
        <DataArray type="Int64" Name="offsets" format="ascii" RangeMin="1" RangeMax="82">
          1 2 3 4 5 6
          7 8 9 10 11 12
          13 14 15 16 17 18
          19 20 21 22 23 24
          25 26 27 28 29 30
          31 32 33 34 35 36
          37 38 39 40 41 42
          43 44 45 46 47 48
          49 50 51 52 53 54
          55 56 57 58 59 60
          61 62 63 64 65 66
          67 68 69 70 71 72
          73 74 75 76 77 78
          79 80 81 82
        </DataArray>
        <DataArray type="UInt8" Name="types" format="ascii" RangeMin="1" RangeMax="1">
          1 1 1 1 1 1
          1 1 1 1 1 1
          1 1 1 1 1 1
          1 1 1 1 1 1
          1 1 1 1 1 1
          1 1 1 1 1 1
          1 1 1 1 1 1
          1 1 1 1 1 1
          1 1 1 1 1 1
          1 1 1 1 1 1
          1 1 1 1 1 1
          1 1 1 1 1 1
          1 1 1 1 1 1
          1 1 1 1
        </DataArray>
      </Cells>
    </Piece>
  </UnstructuredGrid>
</VTKFile>
