<?xml version="1.0"?>
<VTKFile type="UnstructuredGrid" version="0.1" byte_order="LittleEndian" header_type="UInt32" compressor="vtkZLibDataCompressor">
  <UnstructuredGrid>
    <Piece NumberOfPoints="20" NumberOfCells="20">
      <PointData>
        <DataArray type="Int32" Name="id" format="ascii" RangeMin="1" RangeMax="180192">
          3 180175 180176 8 7 180179
          9 180181 1 180182 180184 4
          5 180187 180189 2 10 180190
          180192 6
        </DataArray>
        <DataArray type="Int32" Name="type" format="ascii" RangeMin="1" RangeMax="1">
          1 1 1 1 1 1
          1 1 1 1 1 1
          1 1 1 1 1 1
          1 1
        </DataArray>
        <DataArray type="Float64" Name="diameter" format="ascii" RangeMin="1e-06" RangeMax="1e-06">
          1e-06 1e-06 1e-06 1e-06 1e-06 1e-06
          1e-06 1e-06 1e-06 1e-06 1e-06 1e-06
          1e-06 1e-06 1e-06 1e-06 1e-06 1e-06
          1e-06 1e-06
        </DataArray>
      </PointData>
      <CellData>
      </CellData>
      <Points>
        <DataArray type="Float32" Name="Points" NumberOfComponents="3" format="ascii" RangeMin="5.24776623e-05" RangeMax="0.00012423965057">
          3.2474985346e-05 3.2472631574e-05 2.6602963771e-05 3.0965053156e-05 3.2160849514e-05 2.7581701943e-05
          8.3180901129e-05 3.4176737245e-05 4.0449045628e-05 8.1426580437e-05 3.4431715903e-05 4.0887640353e-05
          6.3841886004e-05 8.3975592133e-06 4.4415712182e-05 6.2137864006e-05 8.3066215666e-06 4.5066164603e-05
          9.561535262e-05 1.7881444364e-05 4.6483295591e-05 9.7346302937e-05 1.8157534214e-05 4.6995744924e-05
          2.0704166673e-05 3.4130607673e-05 5.0062732043e-05 2.0544939616e-05 3.3924392483e-05 5.1870258176e-05
          4.9913644034e-05 2.5919953259e-05 5.8818095567e-05 4.993895709e-05 2.5933861252e-05 6.0644073528e-05
          2.3584785595e-05 2.7489328204e-05 6.6824090027e-05 2.5092525902e-05 2.6618594347e-05 6.7375061917e-05
          3.3399312088e-05 2.9643946618e-05 6.7850240157e-05 3.4004933696e-05 2.9007695048e-05 6.945131463e-05
          5.3585699789e-05 2.8385775295e-05 7.1517381002e-05 5.4625659686e-05 2.8449345336e-05 7.3017203249e-05
          8.7139735115e-05 2.811261038e-05 8.239181625e-05 8.6833519163e-05 2.8700580515e-05 8.4093444457e-05
        </DataArray>
      </Points>
      <Cells>
        <DataArray type="Int64" Name="connectivity" format="ascii" RangeMin="0" RangeMax="19">
          0 1 2 3 4 5
          6 7 8 9 10 11
          12 13 14 15 16 17
          18 19
        </DataArray>
        <DataArray type="Int64" Name="offsets" format="ascii" RangeMin="1" RangeMax="20">
          1 2 3 4 5 6
          7 8 9 10 11 12
          13 14 15 16 17 18
          19 20
        </DataArray>
        <DataArray type="UInt8" Name="types" format="ascii" RangeMin="1" RangeMax="1">
          1 1 1 1 1 1
          1 1 1 1 1 1
          1 1 1 1 1 1
          1 1
        </DataArray>
      </Cells>
    </Piece>
  </UnstructuredGrid>
</VTKFile>
