<?xml version="1.0"?>
<VTKFile type="UnstructuredGrid" version="0.1" byte_order="LittleEndian" header_type="UInt32" compressor="vtkZLibDataCompressor">
  <UnstructuredGrid>
    <Piece NumberOfPoints="20" NumberOfCells="20">
      <PointData>
        <DataArray type="Int32" Name="id" format="ascii" RangeMin="1" RangeMax="139437">
          139420 3 139422 4 6 139424
          8 139425 139427 5 9 139430
          139431 10 7 139436 139435 2
          139437 1
        </DataArray>
        <DataArray type="Int32" Name="type" format="ascii" RangeMin="1" RangeMax="1">
          1 1 1 1 1 1
          1 1 1 1 1 1
          1 1 1 1 1 1
          1 1
        </DataArray>
        <DataArray type="Float64" Name="diameter" format="ascii" RangeMin="1e-06" RangeMax="1e-06">
          1e-06 1e-06 1e-06 1e-06 1e-06 1e-06
          1e-06 1e-06 1e-06 1e-06 1e-06 1e-06
          1e-06 1e-06 1e-06 1e-06 1e-06 1e-06
          1e-06 1e-06
        </DataArray>
      </PointData>
      <CellData>
      </CellData>
      <Points>
        <DataArray type="Float32" Name="Points" NumberOfComponents="3" format="ascii" RangeMin="2.644428781e-05" RangeMax="0.00011407518732">
          1.0129350812e-05 1.7607459085e-05 1.6931449863e-05 1.0015271073e-05 1.7617785488e-05 1.8754059056e-05
          3.5437791666e-05 3.6534274841e-05 2.0916828362e-05 3.5353823478e-05 3.6353863834e-05 2.2732159778e-05
          7.5308642408e-05 2.1810708859e-05 3.9594124246e-05 7.4390911323e-05 2.2634812922e-05 4.0940845793e-05
          6.2454884755e-05 3.6918274418e-05 4.5800927182e-05 6.1968094087e-05 3.6976249248e-05 4.7560104576e-05
          1.7050595488e-05 2.820206646e-05 4.8166555644e-05 1.8848153559e-05 2.8485635994e-05 4.8013582273e-05
          9.841179417e-05 6.4001810642e-06 5.7335022575e-05 9.663883975e-05 6.5519539021e-06 5.7745652157e-05
          8.8270462584e-05 9.59967565e-07 6.5079941123e-05 8.8312706794e-05 9.0856030965e-07 6.6902764956e-05
          6.9155816163e-05 3.0939085264e-05 7.5701536844e-05 4.460242053e-05 2.305486305e-05 7.7723620052e-05
          6.9005662226e-05 3.1134470191e-05 7.7511038398e-05 4.5302364015e-05 2.264891009e-05 7.9360783275e-05
          5.2579248404e-06 3.2539770473e-05 8.9942885097e-05 5.0026378631e-06 3.150507473e-05 9.1425870778e-05
        </DataArray>
      </Points>
      <Cells>
        <DataArray type="Int64" Name="connectivity" format="ascii" RangeMin="0" RangeMax="19">
          0 1 2 3 4 5
          6 7 8 9 10 11
          12 13 14 15 16 17
          18 19
        </DataArray>
        <DataArray type="Int64" Name="offsets" format="ascii" RangeMin="1" RangeMax="20">
          1 2 3 4 5 6
          7 8 9 10 11 12
          13 14 15 16 17 18
          19 20
        </DataArray>
        <DataArray type="UInt8" Name="types" format="ascii" RangeMin="1" RangeMax="1">
          1 1 1 1 1 1
          1 1 1 1 1 1
          1 1 1 1 1 1
          1 1
        </DataArray>
      </Cells>
    </Piece>
  </UnstructuredGrid>
</VTKFile>
