<?xml version="1.0"?>
<VTKFile type="UnstructuredGrid" version="0.1" byte_order="LittleEndian" header_type="UInt32" compressor="vtkZLibDataCompressor">
  <UnstructuredGrid>
    <Piece NumberOfPoints="82" NumberOfCells="82">
      <PointData>
        <DataArray type="Int32" Name="id" format="ascii" RangeMin="1" RangeMax="258446">
          258365 7 258367 258369 10 39
          36 258371 16 258373 20 32
          258376 19 23 258380 258378 258379
          258377 27 258384 8 258387 258386
          35 15 37 258390 258405 258392
          25 1 258411 258412 18 14
          13 258417 258401 28 258402 258414
          258406 31 258400 258403 38 258396
          258398 22 41 258421 258424 12
          40 33 17 34 258429 24
          258432 9 258435 26 258437 258433
          30 258428 258430 21 29 3
          258431 5 11 6 258442 258440
          4 258444 258446 2
        </DataArray>
        <DataArray type="Int32" Name="type" format="ascii" RangeMin="1" RangeMax="1">
          1 1 1 1 1 1
          1 1 1 1 1 1
          1 1 1 1 1 1
          1 1 1 1 1 1
          1 1 1 1 1 1
          1 1 1 1 1 1
          1 1 1 1 1 1
          1 1 1 1 1 1
          1 1 1 1 1 1
          1 1 1 1 1 1
          1 1 1 1 1 1
          1 1 1 1 1 1
          1 1 1 1 1 1
          1 1 1 1
        </DataArray>
        <DataArray type="Float64" Name="diameter" format="ascii" RangeMin="1e-06" RangeMax="1e-06">
          1e-06 1e-06 1e-06 1e-06 1e-06 1e-06
          1e-06 1e-06 1e-06 1e-06 1e-06 1e-06
          1e-06 1e-06 1e-06 1e-06 1e-06 1e-06
          1e-06 1e-06 1e-06 1e-06 1e-06 1e-06
          1e-06 1e-06 1e-06 1e-06 1e-06 1e-06
          1e-06 1e-06 1e-06 1e-06 1e-06 1e-06
          1e-06 1e-06 1e-06 1e-06 1e-06 1e-06
          1e-06 1e-06 1e-06 1e-06 1e-06 1e-06
          1e-06 1e-06 1e-06 1e-06 1e-06 1e-06
          1e-06 1e-06 1e-06 1e-06 1e-06 1e-06
          1e-06 1e-06 1e-06 1e-06 1e-06 1e-06
          1e-06 1e-06 1e-06 1e-06 1e-06 1e-06
          1e-06 1e-06 1e-06 1e-06 1e-06 1e-06
          1e-06 1e-06 1e-06 1e-06
        </DataArray>
      </PointData>
      <CellData>
      </CellData>
      <Points>
        <DataArray type="Float32" Name="Points" NumberOfComponents="3" format="ascii" RangeMin="5.0170341515e-05" RangeMax="0.00011653635769">
          7.1945716627e-05 2.6645914204e-06 3.3109445212e-05 7.1231464972e-05 1.858227165e-06 3.3584114135e-05
          6.9380868808e-05 1.8005002858e-06 3.9485017624e-05 8.8910979684e-05 1.6625459466e-05 3.9621794713e-05
          7.016130985e-05 1.4828877966e-06 4.0105220251e-05 8.914249338e-05 1.6426811271e-05 4.0553535655e-05
          7.5163661677e-05 2.7203066566e-05 4.2016010411e-05 7.514936442e-05 2.7135871278e-05 4.4840926421e-05
          3.7120931665e-05 1.0450109585e-05 4.4992972107e-05 3.5383734939e-05 1.0290816135e-05 4.6533157729e-05
          7.3564529885e-05 1.5090391571e-05 4.5563312597e-05 2.3729418899e-05 7.8315169958e-06 4.6865676268e-05
          7.4375180702e-05 1.4198290955e-05 4.7935183829e-05 6.0069894971e-05 3.5769568058e-05 4.6884073527e-05
          5.7308312535e-05 1.3180751921e-06 4.7256551625e-05 6.9108064054e-05 7.6548549259e-06 4.8355275794e-05
          5.968424739e-05 3.4353117371e-05 4.8970341595e-05 5.8559890022e-05 2.0101954306e-06 4.9392132496e-05
          2.4193332138e-05 6.790144198e-06 4.9292335461e-05 9.9091441371e-05 3.7931604311e-05 4.8195459385e-05
          9.7877142252e-05 3.8528301957e-05 4.9435573601e-05 6.8163804826e-05 6.6365314524e-06 4.8541201977e-05
          8.5207328084e-05 1.3895019038e-05 4.9635080359e-05 4.0783165787e-06 1.1558714732e-06 4.9990943808e-05
          4.9088499509e-05 2.0401512302e-06 4.9196751206e-05 2.7428788599e-05 4.4925177463e-06 4.917996921e-05
          8.808264829e-05 3.3108524804e-05 4.9123224017e-05 5.0430833653e-05 3.3839056414e-05 4.9998801842e-05
          3.5576769733e-05 3.416492109e-05 4.9990376283e-05 2.5969296985e-05 3.6410974644e-06 4.9992788263e-05
          7.8239827417e-05 7.0059641075e-06 4.9827467592e-05 1.6651469195e-05 1.2532768778e-05 4.9799396947e-05
          8.9356668468e-05 1.6106016119e-05 4.9993097491e-05 4.598095984e-05 2.6451119993e-05 5.0009311963e-05
          8.6143103545e-05 3.065954661e-05 4.9858688726e-05 5.0168724556e-05 3.2298969018e-05 4.9964561185e-05
          4.2668430979e-05 3.5356217268e-05 4.9970956752e-05 6.2699662521e-05 7.5959451351e-06 4.9996229791e-05
          1.8099741283e-05 1.1578909834e-05 4.9991835112e-05 8.5511972429e-05 1.3135939298e-05 5.026787403e-05
          2.3156894713e-06 2.4266184482e-05 5.0003643992e-05 2.5686647859e-05 3.215088509e-05 5.0009792176e-05
          4.3473748519e-05 3.3738902857e-05 4.9997033784e-05 4.1737562242e-06 1.1118197563e-06 5.0994534831e-05
          7.9652185377e-05 7.7596005212e-06 5.0006288802e-05 8.4534396592e-05 3.0972129025e-05 5.0004528021e-05
          3.5273194953e-05 3.301257675e-05 5.0774200645e-05 8.7210166384e-05 3.3414107747e-05 4.999815792e-05
          4.894749145e-05 2.1958442176e-06 5.017111107e-05 2.6881436497e-05 3.3249976696e-05 5.1226154028e-05
          3.8801258597e-06 3.37253623e-05 5.1132912631e-05 3.9862907215e-06 3.5535416828e-05 5.0350747188e-05
          6.3493636844e-05 3.5723220208e-05 5.0346843636e-05 6.3887513534e-05 7.6756532508e-06 5.1701033954e-05
          8.910431643e-05 1.5762880139e-05 5.1608934882e-05 2.6657146464e-06 2.5405184715e-05 5.1567545597e-05
          4.5433393097e-05 2.7018058972e-05 5.1636667195e-05 3.6002322759e-06 3.7039797462e-05 5.1661951147e-05
          4.3036219722e-05 5.0636172091e-06 5.1228475058e-05 3.1437964935e-05 1.1330148482e-05 5.2179264458e-05
          1.9141692974e-05 2.1198089598e-05 5.1175768021e-05 6.4889594796e-05 3.5191973438e-05 5.2397605032e-05
          6.6405831603e-05 5.2954756029e-06 5.204264744e-05 3.2473246392e-05 9.1033634817e-06 5.3191321058e-05
          2.0959944322e-06 1.403611077e-05 5.2111987316e-05 4.0134844312e-05 3.0132132451e-05 5.2230883739e-05
          4.1958493966e-05 3.0130438972e-05 5.3134303016e-05 2.8268277674e-06 3.6862478737e-05 5.2306771977e-05
          3.4260221582e-05 9.0238572739e-06 5.2559335018e-05 1.8665121388e-05 2.1063628083e-05 5.3933559684e-05
          5.9915040765e-05 3.5783959902e-05 5.3786850913e-05 4.2916442908e-05 5.1619308579e-06 5.4048097809e-05
          3.0940089346e-05 1.1247829207e-05 5.3034920711e-05 6.6843073e-05 5.3717681112e-06 5.4814096075e-05
          2.7123335258e-06 1.4642975657e-05 5.4720363551e-05 6.764610589e-05 2.5855546482e-05 5.4527336033e-05
          6.9467299909e-05 2.599059917e-05 5.3521100199e-05 5.843488907e-05 3.6524135794e-05 5.3559066146e-05
          6.4655934693e-05 4.726741281e-06 5.6649365433e-05 6.4121122705e-05 4.4900180001e-06 5.7445522543e-05
          3.2033083698e-05 6.2177014115e-06 6.2564788095e-05 3.0602081097e-05 6.1229875428e-06 6.4695399487e-05
        </DataArray>
      </Points>
      <Cells>
        <DataArray type="Int64" Name="connectivity" format="ascii" RangeMin="0" RangeMax="81">
          0 1 2 3 4 5
          6 7 8 9 10 11
          12 13 14 15 16 17
          18 19 20 21 22 23
          24 25 26 27 28 29
          30 31 32 33 34 35
          36 37 38 39 40 41
          42 43 44 45 46 47
          48 49 50 51 52 53
          54 55 56 57 58 59
          60 61 62 63 64 65
          66 67 68 69 70 71
          72 73 74 75 76 77
          78 79 80 81
        </DataArray>
        <DataArray type="Int64" Name="offsets" format="ascii" RangeMin="1" RangeMax="82">
          1 2 3 4 5 6
          7 8 9 10 11 12
          13 14 15 16 17 18
          19 20 21 22 23 24
          25 26 27 28 29 30
          31 32 33 34 35 36
          37 38 39 40 41 42
          43 44 45 46 47 48
          49 50 51 52 53 54
          55 56 57 58 59 60
          61 62 63 64 65 66
          67 68 69 70 71 72
          73 74 75 76 77 78
          79 80 81 82
        </DataArray>
        <DataArray type="UInt8" Name="types" format="ascii" RangeMin="1" RangeMax="1">
          1 1 1 1 1 1
          1 1 1 1 1 1
          1 1 1 1 1 1
          1 1 1 1 1 1
          1 1 1 1 1 1
          1 1 1 1 1 1
          1 1 1 1 1 1
          1 1 1 1 1 1
          1 1 1 1 1 1
          1 1 1 1 1 1
          1 1 1 1 1 1
          1 1 1 1 1 1
          1 1 1 1 1 1
          1 1 1 1
        </DataArray>
      </Cells>
    </Piece>
  </UnstructuredGrid>
</VTKFile>
