<?xml version="1.0"?>
<VTKFile type="UnstructuredGrid" version="0.1" byte_order="LittleEndian" header_type="UInt32" compressor="vtkZLibDataCompressor">
  <UnstructuredGrid>
    <Piece NumberOfPoints="82" NumberOfCells="82">
      <PointData>
        <DataArray type="Int32" Name="id" format="ascii" RangeMin="1" RangeMax="89721">
          3 89641 89643 40 41 29
          2 30 8 89646 89648 89649
          89647 28 89652 16 89650 27
          89660 89658 89662 89654 21 89659
          37 26 14 89668 89667 1
          35 89671 9 18 89670 89678
          89674 7 89675 19 89673 5
          89688 32 31 89687 13 89696
          89689 89691 89697 24 89690 89693
          33 89700 25 89703 6 15
          89704 17 89707 11 20 12
          89706 10 89711 89712 89715 34
          4 36 89716 39 23 89717
          38 89720 22 89721
        </DataArray>
        <DataArray type="Int32" Name="type" format="ascii" RangeMin="1" RangeMax="1">
          1 1 1 1 1 1
          1 1 1 1 1 1
          1 1 1 1 1 1
          1 1 1 1 1 1
          1 1 1 1 1 1
          1 1 1 1 1 1
          1 1 1 1 1 1
          1 1 1 1 1 1
          1 1 1 1 1 1
          1 1 1 1 1 1
          1 1 1 1 1 1
          1 1 1 1 1 1
          1 1 1 1 1 1
          1 1 1 1
        </DataArray>
        <DataArray type="Float64" Name="diameter" format="ascii" RangeMin="1e-06" RangeMax="1e-06">
          1e-06 1e-06 1e-06 1e-06 1e-06 1e-06
          1e-06 1e-06 1e-06 1e-06 1e-06 1e-06
          1e-06 1e-06 1e-06 1e-06 1e-06 1e-06
          1e-06 1e-06 1e-06 1e-06 1e-06 1e-06
          1e-06 1e-06 1e-06 1e-06 1e-06 1e-06
          1e-06 1e-06 1e-06 1e-06 1e-06 1e-06
          1e-06 1e-06 1e-06 1e-06 1e-06 1e-06
          1e-06 1e-06 1e-06 1e-06 1e-06 1e-06
          1e-06 1e-06 1e-06 1e-06 1e-06 1e-06
          1e-06 1e-06 1e-06 1e-06 1e-06 1e-06
          1e-06 1e-06 1e-06 1e-06 1e-06 1e-06
          1e-06 1e-06 1e-06 1e-06 1e-06 1e-06
          1e-06 1e-06 1e-06 1e-06 1e-06 1e-06
          1e-06 1e-06 1e-06 1e-06
        </DataArray>
      </PointData>
      <CellData>
      </CellData>
      <Points>
        <DataArray type="Float32" Name="Points" NumberOfComponents="3" format="ascii" RangeMin="4.384191334e-05" RangeMax="0.00011401020013">
          3.6333774915e-05 6.9196885306e-06 3.4017259168e-05 3.6379329686e-05 6.9939264904e-06 3.5841385397e-05
          8.6295454821e-05 2.735824819e-05 3.7293637433e-05 8.5962441517e-05 2.6731891921e-05 3.8976435462e-05
          8.257448826e-06 2.137852789e-05 4.1981696995e-05 8.3557832113e-05 2.9643328162e-05 4.2116571422e-05
          7.7065842561e-06 5.0643102441e-06 4.286110925e-05 7.9375357018e-05 2.2926529709e-05 4.2965322791e-05
          8.3437509602e-05 1.9499050268e-06 4.3433454266e-05 6.9548891588e-06 2.2096355679e-05 4.3041458412e-05
          8.3531602286e-05 2.9983737477e-05 4.3910578825e-05 8.2005215518e-05 2.9293591979e-06 4.4002859795e-05
          8.8328170023e-06 5.940254141e-06 4.4001000788e-05 8.4036852058e-05 2.7471131034e-05 4.4285392505e-05
          4.6661320084e-05 1.0240430129e-05 4.4969950977e-05 4.6533561544e-05 1.2057459571e-05 4.4839140173e-05
          7.9210411059e-05 2.3175387469e-05 4.4766959036e-05 8.1294521806e-05 2.6907067877e-05 4.5273653086e-05
          6.2041355704e-05 8.5529518401e-06 4.595383507e-05 1.8033273591e-05 2.8071669931e-06 4.6012952225e-05
          6.6034263e-05 9.8141044873e-06 4.6290548198e-05 8.3701306721e-05 2.7435124139e-05 4.6080145694e-05
          1.7103720893e-05 4.1372595661e-06 4.6850698709e-05 8.0543388322e-05 2.7295332984e-05 4.6892317187e-05
          6.7217079049e-05 8.993969459e-06 4.741453813e-05 6.181133358e-05 8.1771349869e-06 4.7726087359e-05
          5.8282210375e-05 1.274803617e-05 4.7646284656e-05 5.9477057221e-05 2.1151749024e-05 4.7734691179e-05
          6.3857391979e-06 2.175490954e-05 4.7801473556e-05 5.4108350014e-06 2.026612492e-05 4.8211481044e-05
          6.1045502662e-05 2.176864291e-05 4.8437861551e-05 8.4121209511e-05 2.5847173674e-05 4.8017212976e-05
          9.9022705399e-05 2.91810411e-05 4.83869444e-05 8.4235034592e-05 1.959786232e-06 4.854386134e-05
          5.8640449424e-05 1.2855043678e-05 4.9433809181e-05 3.9016293158e-05 1.9673516363e-05 4.9143018259e-05
          8.5491796199e-05 1.8169371288e-06 4.9861118896e-05 6.5359046857e-05 3.3130913835e-06 4.9658025091e-05
          6.4656829636e-05 4.998059012e-06 4.9605150707e-05 8.4180435806e-05 2.5814948458e-05 4.9842172302e-05
          9.7945776361e-05 2.9255721529e-05 4.9859925639e-05 3.7808898924e-05 1.9091919967e-05 5.038357267e-05
          2.9783699574e-05 2.8038282835e-05 5.070129555e-05 3.1314179068e-05 3.4420205338e-05 5.0765658671e-05
          2.1021174689e-05 3.5921744711e-05 5.0589605962e-05 2.8271449992e-05 8.8511051217e-06 5.1135684771e-05
          2.8036105505e-05 1.0656552149e-05 5.1277114835e-05 6.3341562054e-05 2.7349002266e-05 5.1036444347e-05
          3.1621708331e-05 3.2727944927e-05 5.1379414799e-05 2.6911289751e-05 3.6956236727e-05 5.1073435316e-05
          5.0177404773e-05 7.9727951743e-06 5.18794659e-05 2.9865917895e-05 2.6730966056e-05 5.1973773225e-05
          2.0421492081e-05 3.4497585148e-05 5.1562834415e-05 7.8712902905e-05 3.5505359847e-05 5.1501603593e-05
          2.5671472031e-05 3.8160625991e-05 5.1662780606e-05 1.6546784991e-06 7.8123703133e-06 5.2437826525e-05
          6.3613013481e-05 2.606669841e-05 5.2308074373e-05 7.3648647231e-05 2.9057828215e-05 5.247891022e-05
          7.8637254774e-05 3.3886462916e-05 5.2343319112e-05 5.0112517783e-05 7.5820430538e-06 5.3662195569e-05
          9.3849324912e-05 1.147920193e-05 5.3617477533e-05 7.2910217568e-05 3.0088876883e-05 5.3792944527e-05
          9.582828352e-05 4.6881436901e-06 5.4119613196e-05 1.7872290528e-06 7.1940326052e-06 5.4151045333e-05
          9.4475617516e-05 9.8616646937e-06 5.4188760259e-05 2.2613185138e-05 9.0856030965e-07 5.4764077504e-05
          2.2328787963e-05 2.5831118364e-06 5.4889649618e-05 9.5155090094e-05 3.8512616811e-06 5.5596592574e-05
          6.0178645072e-05 1.145765782e-05 5.5916883866e-05 7.0210611739e-05 3.0710591091e-05 5.5845932366e-05
          4.9219815992e-05 6.6945153776e-06 5.6263528677e-05 1.9899242034e-05 3.2602198189e-05 5.7418983488e-05
          4.8892816267e-05 6.0968327489e-06 5.7957895478e-05 6.0922764533e-05 1.1106358215e-05 5.7547189499e-05
          2.0228839276e-05 3.0811035685e-05 5.7553628722e-05 7.0150337706e-05 3.0583210901e-05 5.7666693465e-05
          3.6834473576e-05 1.798816993e-05 5.8830370108e-05 3.7287874875e-05 1.6353815226e-05 5.9507379774e-05
          4.4619991968e-05 3.5416094761e-05 6.1386155721e-05 4.4021602662e-05 3.6952616938e-05 6.2171042373e-05
          2.0360505005e-05 8.4652374426e-06 6.5215142968e-05 2.0349900296e-05 8.2204414866e-06 6.7024833697e-05
        </DataArray>
      </Points>
      <Cells>
        <DataArray type="Int64" Name="connectivity" format="ascii" RangeMin="0" RangeMax="81">
          0 1 2 3 4 5
          6 7 8 9 10 11
          12 13 14 15 16 17
          18 19 20 21 22 23
          24 25 26 27 28 29
          30 31 32 33 34 35
          36 37 38 39 40 41
          42 43 44 45 46 47
          48 49 50 51 52 53
          54 55 56 57 58 59
          60 61 62 63 64 65
          66 67 68 69 70 71
          72 73 74 75 76 77
          78 79 80 81
        </DataArray>
        <DataArray type="Int64" Name="offsets" format="ascii" RangeMin="1" RangeMax="82">
          1 2 3 4 5 6
          7 8 9 10 11 12
          13 14 15 16 17 18
          19 20 21 22 23 24
          25 26 27 28 29 30
          31 32 33 34 35 36
          37 38 39 40 41 42
          43 44 45 46 47 48
          49 50 51 52 53 54
          55 56 57 58 59 60
          61 62 63 64 65 66
          67 68 69 70 71 72
          73 74 75 76 77 78
          79 80 81 82
        </DataArray>
        <DataArray type="UInt8" Name="types" format="ascii" RangeMin="1" RangeMax="1">
          1 1 1 1 1 1
          1 1 1 1 1 1
          1 1 1 1 1 1
          1 1 1 1 1 1
          1 1 1 1 1 1
          1 1 1 1 1 1
          1 1 1 1 1 1
          1 1 1 1 1 1
          1 1 1 1 1 1
          1 1 1 1 1 1
          1 1 1 1 1 1
          1 1 1 1 1 1
          1 1 1 1 1 1
          1 1 1 1
        </DataArray>
      </Cells>
    </Piece>
  </UnstructuredGrid>
</VTKFile>
