<?xml version="1.0"?>
<VTKFile type="UnstructuredGrid" version="0.1" byte_order="LittleEndian" header_type="UInt32" compressor="vtkZLibDataCompressor">
  <UnstructuredGrid>
    <Piece NumberOfPoints="82" NumberOfCells="82">
      <PointData>
        <DataArray type="Int32" Name="id" format="ascii" RangeMin="1" RangeMax="308592">
          36 308512 308513 308515 10 20
          21 308518 22 308517 308521 308522
          18 308525 24 308526 33 15
          308523 35 12 16 29 308534
          28 40 308531 308532 308533 308536
          17 38 308540 308542 19 308550
          8 308547 308560 308552 2 13
          30 308558 32 308548 31 3
          308559 308566 308568 25 308565 308567
          308564 308562 1 308569 26 41
          308573 7 37 308576 23 4
          6 308577 308583 11 308585 308586
          5 39 308584 14 27 308587
          308591 9 34 308592
        </DataArray>
        <DataArray type="Int32" Name="type" format="ascii" RangeMin="1" RangeMax="1">
          1 1 1 1 1 1
          1 1 1 1 1 1
          1 1 1 1 1 1
          1 1 1 1 1 1
          1 1 1 1 1 1
          1 1 1 1 1 1
          1 1 1 1 1 1
          1 1 1 1 1 1
          1 1 1 1 1 1
          1 1 1 1 1 1
          1 1 1 1 1 1
          1 1 1 1 1 1
          1 1 1 1 1 1
          1 1 1 1
        </DataArray>
        <DataArray type="Float64" Name="diameter" format="ascii" RangeMin="1e-06" RangeMax="1e-06">
          1e-06 1e-06 1e-06 1e-06 1e-06 1e-06
          1e-06 1e-06 1e-06 1e-06 1e-06 1e-06
          1e-06 1e-06 1e-06 1e-06 1e-06 1e-06
          1e-06 1e-06 1e-06 1e-06 1e-06 1e-06
          1e-06 1e-06 1e-06 1e-06 1e-06 1e-06
          1e-06 1e-06 1e-06 1e-06 1e-06 1e-06
          1e-06 1e-06 1e-06 1e-06 1e-06 1e-06
          1e-06 1e-06 1e-06 1e-06 1e-06 1e-06
          1e-06 1e-06 1e-06 1e-06 1e-06 1e-06
          1e-06 1e-06 1e-06 1e-06 1e-06 1e-06
          1e-06 1e-06 1e-06 1e-06 1e-06 1e-06
          1e-06 1e-06 1e-06 1e-06 1e-06 1e-06
          1e-06 1e-06 1e-06 1e-06 1e-06 1e-06
          1e-06 1e-06 1e-06 1e-06
        </DataArray>
      </PointData>
      <CellData>
      </CellData>
      <Points>
        <DataArray type="Float32" Name="Points" NumberOfComponents="3" format="ascii" RangeMin="4.6441205684e-05" RangeMax="0.00012140893687">
          9.7220545285e-05 2.0537847377e-05 2.8027065127e-05 9.7044357972e-05 1.8941771486e-05 2.8896853109e-05
          8.2968552306e-05 9.0856030965e-07 3.8053600292e-05 7.9473691585e-05 2.4044973543e-05 3.8338388549e-05
          7.7736534877e-05 2.4289513021e-05 3.8845846575e-05 8.2885846496e-05 1.563875685e-06 3.9724018279e-05
          1.6102278096e-05 2.6970463296e-05 4.0957263991e-05 1.3804230548e-05 3.6440233089e-05 4.0744762373e-05
          1.2453124327e-05 3.539773752e-05 4.1394949221e-05 1.580047865e-05 2.8676489819e-05 4.1534694901e-05
          2.6376417736e-05 1.5241605524e-06 4.4786658691e-05 6.2838298618e-06 1.0429201211e-05 4.4816635636e-05
          9.8615390016e-05 2.1589734388e-05 4.4619442633e-05 4.9846654292e-05 2.242166147e-06 4.5628239604e-05
          2.77269246e-05 1.5945362293e-06 4.601393448e-05 8.6595631728e-05 6.9054335654e-06 4.6239889343e-05
          7.4049935392e-06 9.744379895e-06 4.6085115173e-05 1.6208949091e-05 2.1273594029e-05 4.6498960728e-05
          9.9091441371e-05 2.2031175831e-05 4.6113982535e-05 4.9328602472e-05 2.3891291221e-06 4.7373247071e-05
          6.5235049988e-05 4.0493746383e-06 4.7441037168e-05 4.1910436266e-05 2.2083057047e-05 4.7216912208e-05
          4.5053206122e-05 2.6516863727e-05 4.7115398047e-05 6.3469997258e-05 3.9492460928e-06 4.7898851335e-05
          8.6131156422e-05 8.0279160102e-06 4.7603462008e-05 9.8251453892e-05 9.7754436865e-06 4.787159196e-05
          1.7437045244e-05 2.0803568987e-05 4.7766196076e-05 4.309868018e-05 2.0726074581e-05 4.7502737289e-05
          4.5328208216e-05 2.4766397473e-05 4.7557296057e-05 3.7405137846e-05 2.6323661587e-05 4.7869005357e-05
          3.6802754039e-05 2.4659155315e-05 4.8317982873e-05 4.429582259e-05 2.5497682145e-05 4.8281224736e-05
          9.889924695e-05 1.0651286175e-05 4.9337297241e-05 4.2987798224e-05 2.4641947675e-05 4.9225585826e-05
          9.072003013e-05 2.9264021578e-05 4.901898501e-05 1.1337943761e-05 4.2550846047e-06 4.9568428949e-05
          4.1348554078e-05 6.7899181886e-06 4.9511203542e-05 4.3098876631e-05 6.5182275648e-06 4.9955706345e-05
          6.5591244493e-05 6.9217276177e-06 5.047945524e-05 2.9321114198e-05 8.3836330305e-06 5.0150974857e-05
          3.0593768315e-05 9.6702406154e-06 5.0395952712e-05 2.2658021408e-05 2.7498073905e-05 5.0296217523e-05
          3.0699437048e-05 3.7881218304e-05 5.0205078878e-05 3.2471063605e-05 3.7526249798e-05 5.0470345741e-05
          3.5047480196e-05 1.5116612303e-05 5.051379776e-05 9.0718051069e-05 2.9265869671e-05 5.0845188525e-05
          1.1054202332e-05 3.7891491047e-06 5.131124999e-05 5.1912000345e-05 1.1199809705e-05 5.1238996093e-05
          3.6079371057e-05 1.3809818483e-05 5.1263814385e-05 1.7820500943e-05 3.5404420487e-05 5.1466031437e-05
          5.389265425e-05 1.6788874291e-06 5.1747538237e-05 6.489057705e-05 6.0915058384e-06 5.1947386964e-05
          2.0423278329e-05 2.2779886422e-05 5.1642655308e-05 8.9569111879e-05 3.5704972106e-05 5.1565202739e-05
          5.2535684517e-05 9.9296739791e-06 5.239346865e-05 2.2774020181e-05 2.7627538657e-05 5.2114133723e-05
          3.0597082514e-05 4.3431309678e-06 5.2844839956e-05 3.0739527574e-05 6.1557452682e-06 5.2674055041e-05
          1.9637885998e-05 2.156683513e-05 5.2759209211e-05 1.8294531401e-05 3.6436675146e-05 5.28959863e-05
          5.1128066843e-05 3.257813205e-06 5.3053259762e-05 5.5230877479e-05 8.6542677309e-06 5.3368221415e-05
          8.9410277724e-05 3.6321587686e-05 5.3276806284e-05 6.4339110395e-05 3.8028698327e-05 5.3057668993e-05
          5.3631341871e-05 2.0166594368e-06 5.3523112001e-05 5.0196376833e-05 2.1083162665e-06 5.4123604059e-05
          6.3679370214e-05 3.70628768e-05 5.4460153478e-05 5.5191932915e-05 8.9034529083e-06 5.5176926253e-05
          9.9091441371e-05 2.215364475e-05 5.5440250435e-05 9.6686289908e-06 2.8713797292e-05 5.5984732171e-05
          3.2939391531e-05 3.3039748814e-05 5.6310098444e-05 6.5684187575e-05 1.0961281987e-05 5.6916531321e-05
          6.3977349782e-05 1.15347666e-05 5.7221244788e-05 9.8994823929e-05 2.226664401e-05 5.7252684201e-05
          1.0902678696e-05 2.788846723e-05 5.7048207964e-05 3.428706259e-05 3.2920670492e-05 5.7536733948e-05
          9.8743592389e-05 3.4411667002e-05 5.9188452724e-05 9.9091441371e-05 3.5352266423e-05 6.0590704379e-05
          1.3711343854e-05 3.5789526009e-05 6.114396092e-05 5.3721400036e-05 3.7947487726e-05 6.2453895225e-05
          1.4819859643e-05 3.5688633943e-05 6.2591730966e-05 5.3997588111e-05 3.8008922274e-05 6.4258048951e-05
        </DataArray>
      </Points>
      <Cells>
        <DataArray type="Int64" Name="connectivity" format="ascii" RangeMin="0" RangeMax="81">
          0 1 2 3 4 5
          6 7 8 9 10 11
          12 13 14 15 16 17
          18 19 20 21 22 23
          24 25 26 27 28 29
          30 31 32 33 34 35
          36 37 38 39 40 41
          42 43 44 45 46 47
          48 49 50 51 52 53
          54 55 56 57 58 59
          60 61 62 63 64 65
          66 67 68 69 70 71
          72 73 74 75 76 77
          78 79 80 81
        </DataArray>
        <DataArray type="Int64" Name="offsets" format="ascii" RangeMin="1" RangeMax="82">
          1 2 3 4 5 6
          7 8 9 10 11 12
          13 14 15 16 17 18
          19 20 21 22 23 24
          25 26 27 28 29 30
          31 32 33 34 35 36
          37 38 39 40 41 42
          43 44 45 46 47 48
          49 50 51 52 53 54
          55 56 57 58 59 60
          61 62 63 64 65 66
          67 68 69 70 71 72
          73 74 75 76 77 78
          79 80 81 82
        </DataArray>
        <DataArray type="UInt8" Name="types" format="ascii" RangeMin="1" RangeMax="1">
          1 1 1 1 1 1
          1 1 1 1 1 1
          1 1 1 1 1 1
          1 1 1 1 1 1
          1 1 1 1 1 1
          1 1 1 1 1 1
          1 1 1 1 1 1
          1 1 1 1 1 1
          1 1 1 1 1 1
          1 1 1 1 1 1
          1 1 1 1 1 1
          1 1 1 1 1 1
          1 1 1 1 1 1
          1 1 1 1
        </DataArray>
      </Cells>
    </Piece>
  </UnstructuredGrid>
</VTKFile>
