<?xml version="1.0"?>
<VTKFile type="UnstructuredGrid" version="0.1" byte_order="LittleEndian" header_type="UInt32" compressor="vtkZLibDataCompressor">
  <UnstructuredGrid>
    <Piece NumberOfPoints="82" NumberOfCells="82">
      <PointData>
        <DataArray type="Int32" Name="id" format="ascii" RangeMin="1" RangeMax="285724">
          285644 5 18 285647 27 285649
          285650 22 8 7 41 23
          16 285654 30 285655 285656 285659
          285658 285661 285666 13 285670 2
          11 285663 1 285665 285674 33
          285677 285672 285676 285679 285682 40
          38 35 285684 15 36 285694
          14 285683 19 37 12 26
          9 285696 20 28 285695 285686
          285687 285705 39 285699 6 31
          285701 285698 24 4 285711 3
          285713 21 285709 32 285710 285712
          285718 285720 17 10 285719 29
          25 285723 285724 34
        </DataArray>
        <DataArray type="Int32" Name="type" format="ascii" RangeMin="1" RangeMax="1">
          1 1 1 1 1 1
          1 1 1 1 1 1
          1 1 1 1 1 1
          1 1 1 1 1 1
          1 1 1 1 1 1
          1 1 1 1 1 1
          1 1 1 1 1 1
          1 1 1 1 1 1
          1 1 1 1 1 1
          1 1 1 1 1 1
          1 1 1 1 1 1
          1 1 1 1 1 1
          1 1 1 1 1 1
          1 1 1 1
        </DataArray>
        <DataArray type="Float64" Name="diameter" format="ascii" RangeMin="1e-06" RangeMax="1e-06">
          1e-06 1e-06 1e-06 1e-06 1e-06 1e-06
          1e-06 1e-06 1e-06 1e-06 1e-06 1e-06
          1e-06 1e-06 1e-06 1e-06 1e-06 1e-06
          1e-06 1e-06 1e-06 1e-06 1e-06 1e-06
          1e-06 1e-06 1e-06 1e-06 1e-06 1e-06
          1e-06 1e-06 1e-06 1e-06 1e-06 1e-06
          1e-06 1e-06 1e-06 1e-06 1e-06 1e-06
          1e-06 1e-06 1e-06 1e-06 1e-06 1e-06
          1e-06 1e-06 1e-06 1e-06 1e-06 1e-06
          1e-06 1e-06 1e-06 1e-06 1e-06 1e-06
          1e-06 1e-06 1e-06 1e-06 1e-06 1e-06
          1e-06 1e-06 1e-06 1e-06 1e-06 1e-06
          1e-06 1e-06 1e-06 1e-06 1e-06 1e-06
          1e-06 1e-06 1e-06 1e-06
        </DataArray>
      </PointData>
      <CellData>
      </CellData>
      <Points>
        <DataArray type="Float32" Name="Points" NumberOfComponents="3" format="ascii" RangeMin="4.9534104898e-05" RangeMax="0.00011488985559">
          6.1000242567e-05 7.5386801655e-06 3.2700456359e-05 6.1782637204e-05 7.6259507296e-06 3.4348267945e-05
          9.3993483461e-05 2.6203875677e-05 3.4413413232e-05 9.5658986538e-05 2.553469858e-05 3.4750079067e-05
          9.4500152045e-05 3.0936262192e-05 3.9192236727e-05 9.2724585556e-05 3.1109681004e-05 3.9582515456e-05
          5.6138400396e-05 5.978835361e-06 4.1236482502e-05 3.284245031e-05 3.6021690903e-05 4.1990919271e-05
          5.5800534028e-05 4.949084996e-06 4.2706342356e-05 6.9122637797e-05 6.4809460127e-06 4.3249354349e-05
          1.418966076e-05 3.6504861782e-05 4.3057756557e-05 5.0729406212e-05 5.5747855185e-06 4.3872718379e-05
          3.8505309931e-05 9.8971167972e-06 4.3579610065e-05 3.2630996429e-05 3.5943990952e-05 4.3803178414e-05
          4.6174944146e-05 3.9091439248e-05 4.3694952183e-05 7.0213245635e-05 5.3368985391e-06 4.4164102292e-05
          4.5946693717e-05 3.7559744669e-05 4.403461935e-05 3.9701135393e-05 1.0901089809e-05 4.4526746933e-05
          1.3679070435e-05 3.6526649637e-05 4.4810996769e-05 5.1050184993e-05 6.6926954787e-06 4.5280696213e-05
          1.8927710244e-06 2.0419151042e-05 4.508994607e-05 3.2818272302e-05 2.7178737582e-05 4.5085340389e-05
          2.7814665373e-05 6.8266053859e-06 4.5689608669e-05 3.1131501601e-05 1.3620536265e-05 4.5798078645e-05
          5.0578605624e-06 1.8812612325e-05 4.5999906433e-05 3.1622876122e-05 2.847142423e-05 4.5570126531e-05
          2.717960524e-05 8.4060147856e-06 4.6350814955e-05 2.945851702e-05 1.4288732928e-05 4.6097517043e-05
          1.8448177798e-05 1.1397743947e-05 4.6699686209e-05 1.7364411633e-06 2.011365541e-05 4.6883618779e-05
          9.1878369858e-05 1.3231746379e-05 4.7337249271e-05 6.1979635575e-06 1.9471794076e-05 4.7265086323e-05
          9.8639262433e-05 2.5618759537e-05 4.7207111493e-05 7.2533526691e-05 2.9471537346e-05 4.7285764595e-05
          4.3610827561e-05 2.465912803e-05 4.7762663598e-05 9.7187425126e-05 2.588503412e-05 4.8282417993e-05
          3.5901186493e-05 2.7599280656e-05 4.8080895795e-05 5.064873767e-05 9.0856030965e-07 4.8695321311e-05
          8.8273634901e-05 1.0686171663e-05 4.856706073e-05 1.8535318304e-05 1.1550367162e-05 4.8517416872e-05
          9.1856003564e-05 1.3788857359e-05 4.907625771e-05 9.1505637101e-05 2.0942321498e-05 4.9234262406e-05
          4.3675037887e-05 2.5682793421e-05 4.9273628974e-05 3.735505743e-05 2.7501411751e-05 4.9181668146e-05
          7.2393166192e-05 3.0000073821e-05 4.9028170906e-05 9.7666139482e-05 3.3844065911e-05 4.9099002354e-05
          6.614990707e-05 7.8349548858e-06 4.9951708206e-05 1.6734260498e-05 2.2337360861e-05 4.990668458e-05
          5.0860951887e-05 3.0931896617e-05 4.9839141866e-05 7.2426388215e-05 3.2769861718e-05 4.9570084229e-05
          8.7367749074e-05 9.0763742264e-06 5.0272556109e-05 8.7881424406e-05 1.0229161489e-05 5.0291109801e-05
          5.2590839914e-05 3.0864670407e-05 5.0420512707e-05 9.713703912e-05 3.5084478441e-05 5.0330447266e-05
          5.0796501455e-05 9.6055941867e-07 5.0512568123e-05 3.2490010199e-05 1.8846296371e-05 5.1022198022e-05
          9.1546608019e-05 2.0881252567e-05 5.1058985264e-05 1.5605335648e-05 2.1989853849e-05 5.1299452025e-05
          7.2599454143e-05 3.1858391594e-05 5.1143073506e-05 9.0856030965e-07 1.2896599628e-06 5.1907965826e-05
          6.6886153945e-05 7.274834843e-06 5.1526265452e-05 8.6461324827e-05 9.7934025689e-06 5.1686522056e-05
          3.0750259612e-05 1.2410116597e-06 5.2125211369e-05 5.363793025e-05 4.3211953198e-06 5.2497813158e-05
          5.294341463e-05 6.0089573708e-06 5.2433493693e-05 4.8803209211e-05 7.5609636951e-06 5.2221250371e-05
          1.8074228137e-05 1.014150439e-05 5.2967094234e-05 3.251659291e-05 1.8155462385e-05 5.2712486649e-05
          9.4168700571e-07 2.2758638352e-06 5.3443556681e-05 1.8963830371e-05 8.608074495e-06 5.3405536164e-05
          3.1218489312e-05 9.0856030965e-07 5.3684274462e-05 4.7973371693e-05 7.3196961239e-06 5.3830033721e-05
          8.0423473264e-05 1.6066853277e-05 5.4690946854e-05 5.828612484e-05 3.3185664506e-05 5.4707546951e-05
          4.1474744648e-05 1.4995084712e-05 5.5047563364e-05 7.9084391473e-05 1.6029918697e-05 5.5932119722e-05
          4.199871546e-05 1.6003838027e-05 5.6476863392e-05 5.7832876337e-05 3.2736214052e-05 5.6418564782e-05
          7.4586227129e-05 1.1459267625e-05 6.1920218286e-05 7.4080759077e-05 9.8500795502e-06 6.2620245444e-05
          1.0009036487e-05 2.308366129e-05 6.3249506638e-05 1.0295927495e-05 2.3268057703e-05 6.5043590439e-05
        </DataArray>
      </Points>
      <Cells>
        <DataArray type="Int64" Name="connectivity" format="ascii" RangeMin="0" RangeMax="81">
          0 1 2 3 4 5
          6 7 8 9 10 11
          12 13 14 15 16 17
          18 19 20 21 22 23
          24 25 26 27 28 29
          30 31 32 33 34 35
          36 37 38 39 40 41
          42 43 44 45 46 47
          48 49 50 51 52 53
          54 55 56 57 58 59
          60 61 62 63 64 65
          66 67 68 69 70 71
          72 73 74 75 76 77
          78 79 80 81
        </DataArray>
        <DataArray type="Int64" Name="offsets" format="ascii" RangeMin="1" RangeMax="82">
          1 2 3 4 5 6
          7 8 9 10 11 12
          13 14 15 16 17 18
          19 20 21 22 23 24
          25 26 27 28 29 30
          31 32 33 34 35 36
          37 38 39 40 41 42
          43 44 45 46 47 48
          49 50 51 52 53 54
          55 56 57 58 59 60
          61 62 63 64 65 66
          67 68 69 70 71 72
          73 74 75 76 77 78
          79 80 81 82
        </DataArray>
        <DataArray type="UInt8" Name="types" format="ascii" RangeMin="1" RangeMax="1">
          1 1 1 1 1 1
          1 1 1 1 1 1
          1 1 1 1 1 1
          1 1 1 1 1 1
          1 1 1 1 1 1
          1 1 1 1 1 1
          1 1 1 1 1 1
          1 1 1 1 1 1
          1 1 1 1 1 1
          1 1 1 1 1 1
          1 1 1 1 1 1
          1 1 1 1 1 1
          1 1 1 1 1 1
          1 1 1 1
        </DataArray>
      </Cells>
    </Piece>
  </UnstructuredGrid>
</VTKFile>
