<?xml version="1.0"?>
<VTKFile type="UnstructuredGrid" version="0.1" byte_order="LittleEndian" header_type="UInt32" compressor="vtkZLibDataCompressor">
  <UnstructuredGrid>
    <Piece NumberOfPoints="82" NumberOfCells="82">
      <PointData>
        <DataArray type="Int32" Name="id" format="ascii" RangeMin="1" RangeMax="106557">
          16 106476 106479 32 39 106480
          9 106483 11 106484 31 106488
          106493 106492 106491 18 106495 30
          106498 106497 7 34 106496 4
          3 38 10 26 106504 1
          106506 28 106507 19 14 20
          106521 21 106510 15 25 106534
          106524 8 106515 106512 106514 24
          106523 6 106529 106525 41 106519
          40 17 106526 29 106532 27
          23 12 106537 106543 106541 106542
          106539 106546 35 2 106545 33
          5 37 106549 106550 36 106552
          22 13 106555 106557
        </DataArray>
        <DataArray type="Int32" Name="type" format="ascii" RangeMin="1" RangeMax="1">
          1 1 1 1 1 1
          1 1 1 1 1 1
          1 1 1 1 1 1
          1 1 1 1 1 1
          1 1 1 1 1 1
          1 1 1 1 1 1
          1 1 1 1 1 1
          1 1 1 1 1 1
          1 1 1 1 1 1
          1 1 1 1 1 1
          1 1 1 1 1 1
          1 1 1 1 1 1
          1 1 1 1 1 1
          1 1 1 1
        </DataArray>
        <DataArray type="Float64" Name="diameter" format="ascii" RangeMin="1e-06" RangeMax="1e-06">
          1e-06 1e-06 1e-06 1e-06 1e-06 1e-06
          1e-06 1e-06 1e-06 1e-06 1e-06 1e-06
          1e-06 1e-06 1e-06 1e-06 1e-06 1e-06
          1e-06 1e-06 1e-06 1e-06 1e-06 1e-06
          1e-06 1e-06 1e-06 1e-06 1e-06 1e-06
          1e-06 1e-06 1e-06 1e-06 1e-06 1e-06
          1e-06 1e-06 1e-06 1e-06 1e-06 1e-06
          1e-06 1e-06 1e-06 1e-06 1e-06 1e-06
          1e-06 1e-06 1e-06 1e-06 1e-06 1e-06
          1e-06 1e-06 1e-06 1e-06 1e-06 1e-06
          1e-06 1e-06 1e-06 1e-06 1e-06 1e-06
          1e-06 1e-06 1e-06 1e-06 1e-06 1e-06
          1e-06 1e-06 1e-06 1e-06 1e-06 1e-06
          1e-06 1e-06 1e-06 1e-06
        </DataArray>
      </PointData>
      <CellData>
      </CellData>
      <Points>
        <DataArray type="Float32" Name="Points" NumberOfComponents="3" format="ascii" RangeMin="4.5517405257e-05" RangeMax="0.00011151389029">
          4.4214662921e-05 1.3438473616e-05 3.1470866816e-05 4.2492603825e-05 1.2951233657e-05 3.2834373997e-05
          5.9656824305e-05 3.8175814552e-05 3.8718164433e-05 3.6593271943e-05 1.3806211427e-05 3.8348760427e-05
          5.8684352553e-05 3.8410074922e-05 3.9246056986e-05 3.5876601032e-05 1.3291983123e-05 4.094781616e-05
          9.7778516647e-05 2.9079963497e-05 4.0698181692e-05 9.9091441371e-05 2.9049375371e-05 4.2099498387e-05
          1.2289135157e-05 8.9411460067e-06 4.2905328883e-05 1.1497065316e-05 1.0584738448e-05 4.3826228648e-05
          1.9172552129e-05 3.2103642297e-05 4.3383362936e-05 7.7956261521e-05 6.0224260778e-06 4.4619679102e-05
          5.5208805861e-05 1.2436153156e-05 4.5806398703e-05 1.2908327335e-05 2.9730728784e-05 4.5945289457e-05
          1.7983609723e-05 3.1743984437e-05 4.5722055802e-05 7.7691525803e-05 6.8476183515e-06 4.5227159717e-05
          7.6952848758e-05 2.0323688659e-05 4.6223834943e-05 7.7273325587e-05 2.2119997084e-05 4.5298653276e-05
          4.1555093048e-05 2.8754935556e-05 4.6427772759e-05 3.8454621972e-05 1.5363335706e-06 4.6599379857e-05
          5.4624786571e-05 1.105766205e-05 4.5852208132e-05 1.265422452e-05 3.1356972613e-05 4.5736360335e-05
          4.6260953241e-05 6.0213333199e-06 4.7423760407e-05 4.6248176659e-05 7.8411685536e-06 4.6271885367e-05
          3.9011116314e-05 1.2795356952e-06 4.7380170145e-05 4.1441671783e-05 2.9318398447e-05 4.7241792345e-05
          9.7249161627e-05 7.1403587754e-06 4.83879885e-05 6.6307882662e-05 9.9011222119e-06 4.8484289437e-05
          3.7904615056e-06 1.8798944438e-05 4.941727093e-05 5.2712321121e-06 1.9823906769e-05 4.8114281526e-05
          1.0786466191e-05 7.4169010986e-06 4.9764770665e-05 8.1506514107e-05 2.2645728677e-05 4.8741931096e-05
          9.8735465144e-05 7.1349118116e-06 5.0009071856e-05 7.662322605e-05 1.8606933736e-05 4.9445152399e-05
          5.8381403505e-05 2.1346379071e-05 4.9456237321e-05 8.0867437646e-05 7.4226359175e-06 4.9490627134e-05
          3.234005635e-05 2.279547698e-05 4.9997717724e-05 9.6687772384e-06 7.9044484664e-06 5.0124217523e-05
          6.6211265221e-05 9.2846466941e-06 5.0000580814e-05 5.6764212786e-05 1.1572412404e-05 5.0423695939e-05
          7.8069075244e-05 1.5518851797e-05 5.0120306696e-05 9.3554022897e-05 2.1208463295e-05 5.0006183301e-05
          8.9883331384e-05 3.4764765587e-05 5.0004808145e-05 7.9033095972e-05 9.0856030965e-07 5.0770515372e-05
          7.8496283095e-05 2.3007203254e-06 4.9993959692e-05 7.5838979683e-05 1.7369540728e-05 4.9995494919e-05
          8.1385893282e-05 2.2738448024e-05 5.0001788622e-05 3.1259252864e-05 2.4037417461e-05 5.0527949497e-05
          7.2710332461e-05 2.8626429412e-05 4.9990609114e-05 7.3844828876e-05 3.0019486076e-05 5.0502996601e-05
          7.3734401667e-05 3.2513824408e-05 4.9996800954e-05 8.0236219219e-05 7.2429388638e-06 5.0235030358e-05
          1.2170346963e-05 1.0534743524e-05 5.0845606893e-05 5.8929475927e-05 2.075226439e-05 5.0093818572e-05
          8.8008855528e-05 2.9727505535e-05 5.123722076e-05 7.4828109064e-05 3.3830277971e-05 5.1233815611e-05
          7.8702883911e-05 1.6304738892e-05 5.0642043789e-05 8.9715038484e-05 3.4806984331e-05 5.1842755056e-05
          5.7293949794e-05 1.1402447853e-05 5.1243743656e-05 9.3779701274e-05 2.108708577e-05 5.2014322137e-05
          4.3310814362e-05 2.2679812901e-05 5.2421375585e-05 2.1271536752e-05 3.339426712e-06 5.2623447118e-05
          1.2178058569e-05 1.0671030395e-05 5.1826817071e-05 1.8293117137e-06 4.6001810006e-06 5.2069943195e-05
          2.2368767532e-05 4.714347142e-06 5.2114068239e-05 4.4413125579e-05 2.4015449526e-05 5.2001039876e-05
          8.8081294962e-05 2.9485978303e-05 5.2186245739e-05 1.9209372113e-05 3.0296392652e-05 5.2402938309e-05
          5.8076879213e-05 1.6737774786e-05 5.3986121202e-05 9.0856030965e-07 4.5563283493e-06 5.4359759815e-05
          5.9585650888e-05 1.5717096176e-05 5.3115909395e-05 1.9670185793e-05 3.0396658985e-05 5.5167201936e-05
          4.0690483729e-05 1.8653501684e-05 5.5734875787e-05 8.4845829406e-05 1.3595575183e-05 5.6292996305e-05
          8.6524691142e-05 1.4312086023e-05 5.5348325986e-05 4.1200193664e-05 1.9091452486e-05 5.6458578911e-05
          6.2314495153e-05 3.7620015974e-06 6.553195999e-05 6.336838851e-05 3.9598144213e-06 6.6010201408e-05
          1.6613936168e-05 1.146475006e-05 7.318558346e-05 3.014638969e-05 7.9956898844e-06 7.393755368e-05
          2.8354810638e-05 8.1849639173e-06 7.2638475103e-05 1.6495558157e-05 1.1817272025e-05 7.4098250479e-05
        </DataArray>
      </Points>
      <Cells>
        <DataArray type="Int64" Name="connectivity" format="ascii" RangeMin="0" RangeMax="81">
          0 1 2 3 4 5
          6 7 8 9 10 11
          12 13 14 15 16 17
          18 19 20 21 22 23
          24 25 26 27 28 29
          30 31 32 33 34 35
          36 37 38 39 40 41
          42 43 44 45 46 47
          48 49 50 51 52 53
          54 55 56 57 58 59
          60 61 62 63 64 65
          66 67 68 69 70 71
          72 73 74 75 76 77
          78 79 80 81
        </DataArray>
        <DataArray type="Int64" Name="offsets" format="ascii" RangeMin="1" RangeMax="82">
          1 2 3 4 5 6
          7 8 9 10 11 12
          13 14 15 16 17 18
          19 20 21 22 23 24
          25 26 27 28 29 30
          31 32 33 34 35 36
          37 38 39 40 41 42
          43 44 45 46 47 48
          49 50 51 52 53 54
          55 56 57 58 59 60
          61 62 63 64 65 66
          67 68 69 70 71 72
          73 74 75 76 77 78
          79 80 81 82
        </DataArray>
        <DataArray type="UInt8" Name="types" format="ascii" RangeMin="1" RangeMax="1">
          1 1 1 1 1 1
          1 1 1 1 1 1
          1 1 1 1 1 1
          1 1 1 1 1 1
          1 1 1 1 1 1
          1 1 1 1 1 1
          1 1 1 1 1 1
          1 1 1 1 1 1
          1 1 1 1 1 1
          1 1 1 1 1 1
          1 1 1 1 1 1
          1 1 1 1 1 1
          1 1 1 1 1 1
          1 1 1 1
        </DataArray>
      </Cells>
    </Piece>
  </UnstructuredGrid>
</VTKFile>
