<?xml version="1.0"?>
<VTKFile type="UnstructuredGrid" version="0.1" byte_order="LittleEndian" header_type="UInt32" compressor="vtkZLibDataCompressor">
  <UnstructuredGrid>
    <Piece NumberOfPoints="82" NumberOfCells="82">
      <PointData>
        <DataArray type="Int32" Name="id" format="ascii" RangeMin="1" RangeMax="241049">
          32 241049 10 35 241047 241045
          241044 13 37 20 17 3
          241042 241041 26 6 9 241040
          34 31 241038 241034 38 241033
          11 39 30 15 241029 241028
          24 241027 18 241026 27 241018
          36 22 41 241015 12 241008
          241006 241005 241004 241002 241000 2
          240998 240995 23 240994 240993 240992
          240990 240987 240986 240984 28 4
          7 5 240983 240982 240979 19
          40 240978 240977 240976 1 240975
          16 33 25 240971 29 14
          240970 8 240968 21
        </DataArray>
        <DataArray type="Int32" Name="type" format="ascii" RangeMin="1" RangeMax="1">
          1 1 1 1 1 1
          1 1 1 1 1 1
          1 1 1 1 1 1
          1 1 1 1 1 1
          1 1 1 1 1 1
          1 1 1 1 1 1
          1 1 1 1 1 1
          1 1 1 1 1 1
          1 1 1 1 1 1
          1 1 1 1 1 1
          1 1 1 1 1 1
          1 1 1 1 1 1
          1 1 1 1 1 1
          1 1 1 1
        </DataArray>
        <DataArray type="Float64" Name="diameter" format="ascii" RangeMin="1e-06" RangeMax="1e-06">
          1e-06 1e-06 1e-06 1e-06 1e-06 1e-06
          1e-06 1e-06 1e-06 1e-06 1e-06 1e-06
          1e-06 1e-06 1e-06 1e-06 1e-06 1e-06
          1e-06 1e-06 1e-06 1e-06 1e-06 1e-06
          1e-06 1e-06 1e-06 1e-06 1e-06 1e-06
          1e-06 1e-06 1e-06 1e-06 1e-06 1e-06
          1e-06 1e-06 1e-06 1e-06 1e-06 1e-06
          1e-06 1e-06 1e-06 1e-06 1e-06 1e-06
          1e-06 1e-06 1e-06 1e-06 1e-06 1e-06
          1e-06 1e-06 1e-06 1e-06 1e-06 1e-06
          1e-06 1e-06 1e-06 1e-06 1e-06 1e-06
          1e-06 1e-06 1e-06 1e-06 1e-06 1e-06
          1e-06 1e-06 1e-06 1e-06 1e-06 1e-06
          1e-06 1e-06 1e-06 1e-06
        </DataArray>
      </PointData>
      <CellData>
      </CellData>
      <Points>
        <DataArray type="Float32" Name="Points" NumberOfComponents="3" format="ascii" RangeMin="4.7050218031e-05" RangeMax="0.00011576303048">
          3.2571639167e-05 4.9157238209e-06 3.5380075133e-05 2.4275317628e-05 1.1639783224e-05 6.0810481955e-05
          7.5528507296e-05 7.7030590546e-06 4.2489635234e-05 5.2212617447e-05 9.1168493555e-07 4.2600957386e-05
          7.3625211371e-05 1.1518112842e-05 5.9142144892e-05 5.2195489843e-05 3.3183583582e-05 5.5697295466e-05
          6.2054423324e-05 2.7351634344e-05 5.6037413742e-05 3.0506173061e-05 2.4445153031e-05 4.6218585339e-05
          8.9174565801e-05 3.8389156543e-05 4.6112098062e-05 8.183146565e-05 1.635949593e-05 4.4852688006e-05
          5.3078663768e-05 2.1130439563e-05 4.5124263124e-05 3.37363781e-05 4.2558217501e-06 4.6053835831e-05
          7.3162482295e-05 7.1106874202e-06 5.4081814596e-05 1.0234703041e-06 2.0684999981e-05 5.3425614169e-05
          4.5731052523e-05 9.4797424026e-06 4.7412708227e-05 7.0507223427e-05 2.6694846383e-05 4.6779656259e-05
          8.2241247583e-05 3.2744002965e-05 4.7830631956e-05 3.9085702156e-05 8.8500219135e-06 5.4152751545e-05
          8.8063306976e-06 3.9091439248e-05 4.7607729357e-05 1.1399944015e-05 1.0991614545e-05 4.8730762501e-05
          2.3018694719e-06 6.2921549215e-06 5.2662457165e-05 9.8259748484e-05 2.731757013e-05 5.2003706514e-05
          4.1681283619e-05 3.7029087252e-05 4.6880661102e-05 6.6142180003e-05 3.8513629988e-05 5.0865619414e-05
          4.9098284762e-06 1.0829112398e-06 4.8414836783e-05 8.7785781943e-05 2.7621368645e-05 4.9288555601e-05
          5.0818947784e-05 2.9216120311e-05 4.7628112952e-05 1.1749581063e-05 5.0123048823e-06 4.8104360758e-05
          5.0159294915e-05 1.1652356989e-05 4.9994781875e-05 6.6236927523e-05 9.3678982012e-06 5.076058369e-05
          2.3267753932e-05 1.0262077922e-05 4.8947069445e-05 5.74506048e-05 8.7950666057e-06 5.0007191021e-05
          7.7703174611e-05 3.5273744288e-05 4.9612281146e-05 8.0092977441e-05 1.9853359845e-05 5.1172395615e-05
          9.7082884167e-05 3.6865068978e-05 4.9118974857e-05 5.1236431318e-05 1.0895012565e-05 4.9859299907e-05
          6.2497441832e-05 2.1720397854e-05 4.8630954552e-05 2.0660225346e-05 2.5513985747e-05 5.0243234e-05
          2.3612349196e-06 2.7109474104e-05 4.851075937e-05 4.1499395593e-05 4.0657023419e-06 5.0008537073e-05
          5.6352488173e-05 6.128871064e-06 4.957863348e-05 5.7676348661e-05 4.8771453294e-06 5.000355668e-05
          2.3325046641e-06 2.7149140806e-05 4.9996309826e-05 2.0322266209e-05 2.537405453e-05 4.8954036174e-05
          6.2783117755e-05 2.2687307137e-05 4.9993617722e-05 9.5450363006e-05 3.648917118e-05 4.8891924962e-05
          7.7669741586e-05 3.3968161006e-05 4.8835812777e-05 4.2893803766e-05 3.5764171571e-06 5.0701502914e-05
          2.3112717827e-05 1.2028488527e-05 4.9010275688e-05 1.2463048733e-05 4.565479685e-06 5.0004957302e-05
          5.1002993132e-05 1.1144632481e-05 5.1153241657e-05 5.0964954426e-05 3.0043202059e-05 4.9749731261e-05
          8.7930835434e-05 2.8452657716e-05 4.8169004003e-05 3.1677038805e-06 9.0856030965e-07 4.8492416681e-05
          4.1825729568e-05 3.8326877984e-05 4.8657337175e-05 1.1421529962e-05 1.0772175301e-05 4.7417917813e-05
          8.9503128038e-06 3.805630331e-05 4.7505705879e-05 8.3294784417e-05 3.315036156e-05 4.6895373089e-05
          7.9774225014e-05 2.0099623725e-05 4.9891164963e-05 5.7506669691e-05 9.1822485047e-06 5.2011000662e-05
          6.8017063313e-05 9.6282383311e-06 5.1574228564e-05 5.0834936701e-05 1.2127005903e-05 5.1643663028e-05
          6.9659341534e-05 2.791892075e-05 4.8336896725e-05 4.3947715312e-05 9.687723832e-06 4.7578818339e-05
          3.2500400266e-05 4.6329846555e-06 4.7844237997e-05 6.7580236646e-05 3.7581296056e-05 5.1996328693e-05
          9.9091441371e-05 2.7305981348e-05 5.3257383115e-05 5.2100505854e-05 1.9880393666e-05 4.6527384256e-05
          8.1117424998e-05 1.5554527636e-05 4.6828223276e-05 8.9781482529e-05 3.8951791794e-05 4.4984175474e-05
          3.069773129e-06 7.3418063948e-06 5.4444481066e-05 3.1200775993e-05 2.5176990675e-05 4.5196422434e-05
          3.7430178054e-05 8.1949065134e-06 5.5059073929e-05 1.6463856127e-06 2.1439813281e-05 5.5467451602e-05
          7.2819879279e-05 6.221816875e-06 5.6139877415e-05 5.2449529903e-05 9.0856030965e-07 4.491171785e-05
          6.0477184888e-05 2.6869760404e-05 5.5753094784e-05 5.150186189e-05 3.3886317397e-05 5.7733548601e-05
          7.4390569353e-05 6.758136351e-06 4.4060729124e-05 7.3498842539e-05 1.0682357242e-05 5.8023324527e-05
          3.0983304896e-05 5.1993388297e-06 3.5024630051e-05 2.5440915124e-05 1.0373660189e-05 6.0699461756e-05
        </DataArray>
      </Points>
      <Cells>
        <DataArray type="Int64" Name="connectivity" format="ascii" RangeMin="0" RangeMax="81">
          0 1 2 3 4 5
          6 7 8 9 10 11
          12 13 14 15 16 17
          18 19 20 21 22 23
          24 25 26 27 28 29
          30 31 32 33 34 35
          36 37 38 39 40 41
          42 43 44 45 46 47
          48 49 50 51 52 53
          54 55 56 57 58 59
          60 61 62 63 64 65
          66 67 68 69 70 71
          72 73 74 75 76 77
          78 79 80 81
        </DataArray>
        <DataArray type="Int64" Name="offsets" format="ascii" RangeMin="1" RangeMax="82">
          1 2 3 4 5 6
          7 8 9 10 11 12
          13 14 15 16 17 18
          19 20 21 22 23 24
          25 26 27 28 29 30
          31 32 33 34 35 36
          37 38 39 40 41 42
          43 44 45 46 47 48
          49 50 51 52 53 54
          55 56 57 58 59 60
          61 62 63 64 65 66
          67 68 69 70 71 72
          73 74 75 76 77 78
          79 80 81 82
        </DataArray>
        <DataArray type="UInt8" Name="types" format="ascii" RangeMin="1" RangeMax="1">
          1 1 1 1 1 1
          1 1 1 1 1 1
          1 1 1 1 1 1
          1 1 1 1 1 1
          1 1 1 1 1 1
          1 1 1 1 1 1
          1 1 1 1 1 1
          1 1 1 1 1 1
          1 1 1 1 1 1
          1 1 1 1 1 1
          1 1 1 1 1 1
          1 1 1 1 1 1
          1 1 1 1 1 1
          1 1 1 1
        </DataArray>
      </Cells>
    </Piece>
  </UnstructuredGrid>
</VTKFile>
