<?xml version="1.0"?>
<VTKFile type="UnstructuredGrid" version="0.1" byte_order="LittleEndian" header_type="UInt32" compressor="vtkZLibDataCompressor">
  <UnstructuredGrid>
    <Piece NumberOfPoints="82" NumberOfCells="82">
      <PointData>
        <DataArray type="Int32" Name="id" format="ascii" RangeMin="1" RangeMax="13481">
          13403 13404 2 13405 32 13
          13408 23 13406 35 9 13413
          13410 3 17 13414 13417 13419
          13423 13420 11 13421 13426 34
          40 41 13424 16 18 26
          36 1 13428 38 13435 15
          13431 13434 13438 19 37 12
          39 13439 13447 6 13442 13448
          13451 13445 20 25 13453 13457
          29 13459 21 13455 8 30
          27 31 13461 33 13464 13462
          22 4 13466 13467 14 13471
          24 13470 13475 5 13477 28
          13479 7 10 13481
        </DataArray>
        <DataArray type="Int32" Name="type" format="ascii" RangeMin="1" RangeMax="1">
          1 1 1 1 1 1
          1 1 1 1 1 1
          1 1 1 1 1 1
          1 1 1 1 1 1
          1 1 1 1 1 1
          1 1 1 1 1 1
          1 1 1 1 1 1
          1 1 1 1 1 1
          1 1 1 1 1 1
          1 1 1 1 1 1
          1 1 1 1 1 1
          1 1 1 1 1 1
          1 1 1 1 1 1
          1 1 1 1
        </DataArray>
        <DataArray type="Float64" Name="diameter" format="ascii" RangeMin="1e-06" RangeMax="1e-06">
          1e-06 1e-06 1e-06 1e-06 1e-06 1e-06
          1e-06 1e-06 1e-06 1e-06 1e-06 1e-06
          1e-06 1e-06 1e-06 1e-06 1e-06 1e-06
          1e-06 1e-06 1e-06 1e-06 1e-06 1e-06
          1e-06 1e-06 1e-06 1e-06 1e-06 1e-06
          1e-06 1e-06 1e-06 1e-06 1e-06 1e-06
          1e-06 1e-06 1e-06 1e-06 1e-06 1e-06
          1e-06 1e-06 1e-06 1e-06 1e-06 1e-06
          1e-06 1e-06 1e-06 1e-06 1e-06 1e-06
          1e-06 1e-06 1e-06 1e-06 1e-06 1e-06
          1e-06 1e-06 1e-06 1e-06 1e-06 1e-06
          1e-06 1e-06 1e-06 1e-06 1e-06 1e-06
          1e-06 1e-06 1e-06 1e-06 1e-06 1e-06
          1e-06 1e-06 1e-06 1e-06
        </DataArray>
      </PointData>
      <CellData>
      </CellData>
      <Points>
        <DataArray type="Float32" Name="Points" NumberOfComponents="3" format="ascii" RangeMin="8.6886625232e-06" RangeMax="9.90520678e-05">
          1.3592763935e-05 3.7948855606e-05 1.9737487946e-06 2.4850907721e-05 1.8815868316e-05 2.5253061722e-06
          1.3265299458e-05 1.2135609722e-05 2.6530467494e-06 2.2671743864e-05 2.8640983146e-05 3.5516138723e-06
          1.3512705664e-05 3.7873356632e-05 2.9567061119e-06 2.4694039894e-05 1.9123943275e-05 3.4494596548e-06
          2.7671532735e-05 8.8892493295e-06 4.6527420636e-06 2.2103780793e-05 2.7349105949e-05 3.7107088247e-06
          1.3022312487e-05 1.2529132619e-05 5.4197175814e-06 4.5759814384e-05 2.9900353184e-05 4.1817479541e-06
          8.5174877313e-05 6.2824046836e-06 4.6726795517e-06 5.5423377489e-05 2.327645052e-05 5.735943887e-06
          4.4216492824e-05 3.0435196095e-05 5.9985272856e-06 2.8193759135e-05 8.5045821834e-06 5.4043252931e-06
          5.3984356782e-05 2.2949390768e-05 5.8117125263e-06 8.533741493e-05 6.3717529883e-06 7.489442396e-06
          3.4388718632e-05 2.0213934476e-05 7.2149491643e-06 9.160125046e-05 3.517255027e-05 7.3806450018e-06
          4.7633434406e-06 2.5468982585e-06 8.4797411546e-06 5.8253608586e-06 2.6399332e-06 8.6561631178e-06
          1.8624517679e-06 3.3864910165e-06 7.7817612691e-06 5.5400945712e-05 1.0445158296e-05 8.5605624918e-06
          7.7947581303e-05 1.9381302991e-05 8.9416771516e-06 3.5195836972e-05 2.0871750166e-05 7.7152399172e-06
          9.2415131803e-05 3.421396832e-05 7.7049326137e-06 4.5731999307e-06 3.9064025259e-06 8.0601148511e-06
          9.0856030965e-07 4.0367999645e-06 9.4912657005e-06 5.5274213082e-05 1.2148682799e-05 8.206295206e-06
          7.9622266639e-05 1.8786719011e-05 8.3622981037e-06 5.2424795285e-05 2.0842637241e-05 8.2371343524e-06
          5.2514220442e-05 2.7243057048e-05 8.3055301729e-06 6.1688560891e-06 1.7833945094e-06 9.0538578661e-06
          5.2075509302e-05 1.9462473574e-05 1.0380888853e-05 6.7592482083e-05 3.7980644265e-05 9.121425137e-06
          4.6269513405e-05 1.3348843822e-05 1.0962272427e-05 4.4465101382e-05 1.3565762856e-05 1.0141343409e-05
          5.3023944929e-05 2.7509016945e-05 1.1038871889e-05 6.8495530286e-05 3.8910675357e-05 1.1407725651e-05
          6.4789455791e-05 3.48941212e-05 1.1774563063e-05 9.014695388e-05 2.01396997e-05 1.1374530914e-05
          6.3126462919e-05 3.52436291e-05 1.1443377844e-05 2.3323060304e-05 1.0355320228e-05 1.1515245205e-05
          8.2957056293e-05 3.4027107176e-05 1.1903116501e-05 2.4810829927e-05 1.0800774362e-05 1.3476046661e-05
          3.8246438635e-05 2.8164007745e-05 1.3434746506e-05 5.2117164159e-05 2.219208227e-06 1.3445154764e-05
          9.0237357654e-05 2.0456174752e-05 1.4170832401e-05 5.3507588746e-05 3.3021929084e-06 1.4923580238e-05
          9.3693917734e-05 5.1996098591e-06 1.4945308976e-05 8.2947699411e-05 3.4167645936e-05 1.4723883396e-05
          9.2267080618e-05 4.1447283365e-06 1.4377034859e-05 3.8209582272e-05 2.8036196454e-05 1.4422450477e-05
          8.4698600403e-05 3.8194237277e-05 1.5632898794e-05 6.4901527367e-05 2.343320557e-05 1.6240983314e-05
          8.3926715888e-05 3.666428529e-05 1.5264142348e-05 6.7636843596e-05 8.1824873632e-06 1.6640287868e-05
          4.6218970056e-06 1.9912939024e-05 1.562512989e-05 5.4552151596e-06 2.1536081476e-05 1.670272286e-05
          6.8962064688e-05 7.2518687375e-06 1.6484542357e-05 9.3944443506e-05 1.433682155e-05 1.6015674191e-05
          6.5425265348e-05 2.2001482648e-05 1.6246416635e-05 2.2932819775e-05 3.0022181818e-05 1.6250656699e-05
          2.3004313334e-05 3.1846964703e-05 1.7259733795e-05 2.8394631954e-05 3.6547102354e-05 1.6900055925e-05
          3.4292406781e-05 1.8061375158e-05 1.8043812815e-05 9.3808383099e-05 1.4245956663e-05 1.8834534785e-05
          1.6717493054e-05 2.6976780646e-05 1.7532634956e-05 3.4810476791e-05 1.8408489268e-05 1.8820663172e-05
          2.8277827369e-05 3.6047913454e-05 1.9652825358e-05 1.7070622562e-05 2.7703172236e-05 2.0170526113e-05
          4.6600041969e-05 1.00139805e-05 2.0375013264e-05 3.0810570024e-05 2.1539337467e-05 2.1455518436e-05
          3.257395656e-05 2.1574554921e-05 2.0929075617e-05 4.5086315367e-05 1.0624417882e-05 2.219417911e-05
          5.2617866459e-05 5.9611074903e-06 2.3075803256e-05 5.2613595471e-05 5.3078201745e-06 2.3824522941e-05
          7.38626768e-05 2.6648474886e-05 2.4526440029e-05 7.2284296039e-05 2.6190205972e-05 2.4322511308e-05
          5.4010663007e-05 9.3732378446e-06 2.7621865229e-05 5.3653315263e-05 8.9346212917e-06 2.8438720619e-05
          9.0346184152e-05 2.2497372356e-06 3.622440272e-05 9.1548412456e-05 1.0035527112e-06 3.7804671592e-05
        </DataArray>
      </Points>
      <Cells>
        <DataArray type="Int64" Name="connectivity" format="ascii" RangeMin="0" RangeMax="81">
          0 1 2 3 4 5
          6 7 8 9 10 11
          12 13 14 15 16 17
          18 19 20 21 22 23
          24 25 26 27 28 29
          30 31 32 33 34 35
          36 37 38 39 40 41
          42 43 44 45 46 47
          48 49 50 51 52 53
          54 55 56 57 58 59
          60 61 62 63 64 65
          66 67 68 69 70 71
          72 73 74 75 76 77
          78 79 80 81
        </DataArray>
        <DataArray type="Int64" Name="offsets" format="ascii" RangeMin="1" RangeMax="82">
          1 2 3 4 5 6
          7 8 9 10 11 12
          13 14 15 16 17 18
          19 20 21 22 23 24
          25 26 27 28 29 30
          31 32 33 34 35 36
          37 38 39 40 41 42
          43 44 45 46 47 48
          49 50 51 52 53 54
          55 56 57 58 59 60
          61 62 63 64 65 66
          67 68 69 70 71 72
          73 74 75 76 77 78
          79 80 81 82
        </DataArray>
        <DataArray type="UInt8" Name="types" format="ascii" RangeMin="1" RangeMax="1">
          1 1 1 1 1 1
          1 1 1 1 1 1
          1 1 1 1 1 1
          1 1 1 1 1 1
          1 1 1 1 1 1
          1 1 1 1 1 1
          1 1 1 1 1 1
          1 1 1 1 1 1
          1 1 1 1 1 1
          1 1 1 1 1 1
          1 1 1 1 1 1
          1 1 1 1 1 1
          1 1 1 1 1 1
          1 1 1 1
        </DataArray>
      </Cells>
    </Piece>
  </UnstructuredGrid>
</VTKFile>
