<?xml version="1.0"?>
<VTKFile type="UnstructuredGrid" version="0.1" byte_order="LittleEndian" header_type="UInt32" compressor="vtkZLibDataCompressor">
  <UnstructuredGrid>
    <Piece NumberOfPoints="82" NumberOfCells="82">
      <PointData>
        <DataArray type="Int32" Name="id" format="ascii" RangeMin="1" RangeMax="41778">
          41778 29 26 41776 41775 41774
          1 9 19 41773 11 41772
          22 41 41769 41760 32 41759
          41758 21 15 40 41754 2
          12 41751 35 41750 41749 41748
          41746 30 13 39 23 41744
          34 18 41743 6 41742 41736
          41734 41733 41731 37 20 31
          41730 14 41729 25 38 27
          36 41728 41723 4 41721 41720
          41718 17 24 3 41717 41716
          41713 41710 41709 41707 41705 41704
          5 41703 41699 16 33 10
          7 28 41698 8
        </DataArray>
        <DataArray type="Int32" Name="type" format="ascii" RangeMin="1" RangeMax="1">
          1 1 1 1 1 1
          1 1 1 1 1 1
          1 1 1 1 1 1
          1 1 1 1 1 1
          1 1 1 1 1 1
          1 1 1 1 1 1
          1 1 1 1 1 1
          1 1 1 1 1 1
          1 1 1 1 1 1
          1 1 1 1 1 1
          1 1 1 1 1 1
          1 1 1 1 1 1
          1 1 1 1 1 1
          1 1 1 1
        </DataArray>
        <DataArray type="Float64" Name="diameter" format="ascii" RangeMin="1e-06" RangeMax="1e-06">
          1e-06 1e-06 1e-06 1e-06 1e-06 1e-06
          1e-06 1e-06 1e-06 1e-06 1e-06 1e-06
          1e-06 1e-06 1e-06 1e-06 1e-06 1e-06
          1e-06 1e-06 1e-06 1e-06 1e-06 1e-06
          1e-06 1e-06 1e-06 1e-06 1e-06 1e-06
          1e-06 1e-06 1e-06 1e-06 1e-06 1e-06
          1e-06 1e-06 1e-06 1e-06 1e-06 1e-06
          1e-06 1e-06 1e-06 1e-06 1e-06 1e-06
          1e-06 1e-06 1e-06 1e-06 1e-06 1e-06
          1e-06 1e-06 1e-06 1e-06 1e-06 1e-06
          1e-06 1e-06 1e-06 1e-06 1e-06 1e-06
          1e-06 1e-06 1e-06 1e-06 1e-06 1e-06
          1e-06 1e-06 1e-06 1e-06 1e-06 1e-06
          1e-06 1e-06 1e-06 1e-06
        </DataArray>
      </PointData>
      <CellData>
      </CellData>
      <Points>
        <DataArray type="Float32" Name="Points" NumberOfComponents="3" format="ascii" RangeMin="2.691091746e-05" RangeMax="0.00010278997473">
          7.7395008702e-05 5.418404271e-06 6.2105769757e-05 9.3347654911e-05 2.6184869057e-05 5.4774104683e-06
          5.8313686168e-05 9.6121557362e-06 1.4608037418e-05 7.6018899563e-05 2.0408022465e-05 5.2549181419e-05
          5.1612711104e-05 1.5334147974e-05 5.3033803852e-05 8.8002103439e-05 9.0361327238e-06 5.1798499044e-05
          7.4766517173e-06 2.0616973416e-05 2.0360828785e-05 9.2918409791e-05 7.4450531429e-06 2.1560099412e-05
          9.368598694e-05 1.8309285224e-05 2.1817531888e-05 2.5827450372e-05 3.5697208659e-05 5.0424874644e-05
          5.411794973e-06 8.462153346e-06 2.4966015189e-05 4.4211232307e-05 1.320420688e-05 5.1053317293e-05
          9.4846191132e-06 2.6412993975e-05 2.6747389711e-05 2.2559868285e-06 3.9666538214e-06 2.7945548936e-05
          4.1601102566e-05 1.2233266716e-05 4.9999893236e-05 1.1520777662e-05 2.7596095606e-05 4.8045887524e-05
          1.7345268134e-05 3.6709629057e-05 2.5908188036e-05 3.4444048651e-05 2.1365232897e-05 4.8299581977e-05
          5.8257988712e-05 2.0521356419e-05 4.8078829423e-05 1.387629527e-05 2.743241339e-06 2.9317290682e-05
          5.1909701142e-05 4.4434145821e-06 3.0459714253e-05 8.8008862804e-05 3.3552285458e-05 3.0619212339e-05
          4.3012340029e-05 7.7295808296e-06 4.7579473176e-05 5.0716780606e-06 1.1886283573e-05 3.076700159e-05
          2.9757473385e-05 4.2464562284e-06 3.2093510526e-05 4.0852777602e-05 2.6562525818e-05 4.8949907068e-05
          4.5718606998e-05 1.9417526346e-05 3.1495161238e-05 6.7366549047e-05 1.9847171643e-05 4.7954530601e-05
          5.6696782849e-05 3.5722281609e-05 4.8099598644e-05 5.1141258155e-05 3.299375021e-05 4.7121226089e-05
          4.7833760618e-05 1.6652295017e-05 4.6158424084e-05 8.3589409769e-05 2.5900570108e-05 3.6322810047e-05
          2.2549844289e-05 2.7736170523e-05 3.5790995753e-05 7.1162401582e-05 3.8990565372e-05 3.5969580495e-05
          3.2022486266e-05 2.7678566767e-05 3.6331966839e-05 1.9240009351e-05 3.7810699723e-05 4.5626937208e-05
          2.3939821403e-05 3.2037492929e-05 3.8629186747e-05 8.8136148406e-05 5.8673126659e-06 3.9420421672e-05
          9.0040943178e-05 1.4194043615e-05 4.2572981329e-05 6.5441956394e-05 1.0541528354e-05 3.8345267967e-05
          7.3299132055e-05 2.9534343412e-05 4.3918673327e-05 6.6569860792e-05 1.0534481589e-05 4.0281516704e-05
          8.8628825324e-05 4.4198386604e-06 3.892186578e-05 2.5039587854e-05 3.12425218e-05 3.790707342e-05
          3.1305706216e-05 2.7320968002e-05 3.8473117456e-05 7.2964867286e-05 3.024151556e-05 4.1768460505e-05
          9.0491768788e-05 1.4234445189e-05 4.3842206651e-05 2.046415284e-05 3.7255333154e-05 4.389078822e-05
          7.1081776696e-05 3.8459256757e-05 3.82149301e-05 4.6428354835e-05 1.6374930055e-05 4.4525761041e-05
          2.1432771973e-05 2.788879101e-05 3.7727615563e-05 5.0763348554e-05 3.4779852285e-05 4.6666507842e-05
          5.7234927226e-05 3.4730241168e-05 4.6163881052e-05 6.8882764026e-05 1.9174216504e-05 4.6690816816e-05
          4.0815088141e-05 2.6193594749e-05 4.6661749366e-05 8.232408436e-05 2.5025598006e-05 3.5838733311e-05
          4.5077555114e-05 1.7894035409e-05 3.1218594813e-05 4.3926738726e-05 7.5015150287e-06 4.8643727496e-05
          3.0925548344e-05 4.427679869e-06 3.1201463571e-05 3.2969394397e-06 1.1972220818e-05 3.1688836316e-05
          8.8946639153e-05 3.3574964618e-05 2.9552340493e-05 5.8592482674e-05 2.062573185e-05 4.9371104978e-05
          3.5405759263e-05 2.0658748326e-05 4.9181981012e-05 1.1353760783e-05 2.6228139177e-05 4.8744150263e-05
          5.1793886087e-05 4.3063591875e-06 2.9142345738e-05 1.5294448531e-05 3.3379676552e-06 3.0802264519e-05
          1.6743462766e-05 3.5782410123e-05 2.786184632e-05 2.1044897949e-06 3.6067231122e-06 2.6661584343e-05
          8.0518993855e-06 2.6063906262e-05 2.6170135243e-05 7.026700132e-06 8.4300581875e-06 2.4613911592e-05
          9.5500865427e-05 1.8210828785e-05 2.2495103622e-05 9.1387963039e-05 6.4529212978e-06 2.1968309738e-05
          4.0476370486e-05 1.1971918866e-05 5.1194710977e-05 7.000091955e-06 1.8983069822e-05 2.1522853785e-05
          5.8971432736e-05 8.9274044512e-06 1.6668009266e-05 4.5687094826e-05 1.216788587e-05 5.1841238019e-05
          2.5030869438e-05 3.568093598e-05 5.2568109822e-05 8.7761705799e-05 1.0843424207e-05 5.2403072914e-05
          5.3371491958e-05 1.5243057533e-05 5.3050654969e-05 7.766726776e-05 1.9625556888e-05 5.3124393162e-05
          9.3183691206e-05 2.6066647479e-05 4.1624257392e-06 7.8145341831e-05 4.0954482756e-06 6.3616622356e-05
        </DataArray>
      </Points>
      <Cells>
        <DataArray type="Int64" Name="connectivity" format="ascii" RangeMin="0" RangeMax="81">
          0 1 2 3 4 5
          6 7 8 9 10 11
          12 13 14 15 16 17
          18 19 20 21 22 23
          24 25 26 27 28 29
          30 31 32 33 34 35
          36 37 38 39 40 41
          42 43 44 45 46 47
          48 49 50 51 52 53
          54 55 56 57 58 59
          60 61 62 63 64 65
          66 67 68 69 70 71
          72 73 74 75 76 77
          78 79 80 81
        </DataArray>
        <DataArray type="Int64" Name="offsets" format="ascii" RangeMin="1" RangeMax="82">
          1 2 3 4 5 6
          7 8 9 10 11 12
          13 14 15 16 17 18
          19 20 21 22 23 24
          25 26 27 28 29 30
          31 32 33 34 35 36
          37 38 39 40 41 42
          43 44 45 46 47 48
          49 50 51 52 53 54
          55 56 57 58 59 60
          61 62 63 64 65 66
          67 68 69 70 71 72
          73 74 75 76 77 78
          79 80 81 82
        </DataArray>
        <DataArray type="UInt8" Name="types" format="ascii" RangeMin="1" RangeMax="1">
          1 1 1 1 1 1
          1 1 1 1 1 1
          1 1 1 1 1 1
          1 1 1 1 1 1
          1 1 1 1 1 1
          1 1 1 1 1 1
          1 1 1 1 1 1
          1 1 1 1 1 1
          1 1 1 1 1 1
          1 1 1 1 1 1
          1 1 1 1 1 1
          1 1 1 1 1 1
          1 1 1 1 1 1
          1 1 1 1
        </DataArray>
      </Cells>
    </Piece>
  </UnstructuredGrid>
</VTKFile>
