<?xml version="1.0"?>
<VTKFile type="UnstructuredGrid" version="0.1" byte_order="LittleEndian" header_type="UInt32" compressor="vtkZLibDataCompressor">
  <UnstructuredGrid>
    <Piece NumberOfPoints="82" NumberOfCells="82">
      <PointData>
        <DataArray type="Int32" Name="id" format="ascii" RangeMin="1" RangeMax="514345">
          514265 19 8 514267 17 41
          514269 514271 14 514274 514270 514272
          514277 25 35 13 23 5
          514279 514280 30 29 4 514290
          514292 514289 514283 37 514285 514286
          33 6 31 21 514305 36
          514307 12 514311 514296 24 514308
          18 514304 26 514306 514310 40
          27 39 514315 9 514314 1
          3 514318 514321 10 22 514323
          514325 514332 514333 514335 514326 15
          514336 2 7 514338 11 514339
          32 514340 20 38 514341 34
          16 514344 28 514345
        </DataArray>
        <DataArray type="Int32" Name="type" format="ascii" RangeMin="1" RangeMax="1">
          1 1 1 1 1 1
          1 1 1 1 1 1
          1 1 1 1 1 1
          1 1 1 1 1 1
          1 1 1 1 1 1
          1 1 1 1 1 1
          1 1 1 1 1 1
          1 1 1 1 1 1
          1 1 1 1 1 1
          1 1 1 1 1 1
          1 1 1 1 1 1
          1 1 1 1 1 1
          1 1 1 1 1 1
          1 1 1 1
        </DataArray>
        <DataArray type="Float64" Name="diameter" format="ascii" RangeMin="1e-06" RangeMax="1e-06">
          1e-06 1e-06 1e-06 1e-06 1e-06 1e-06
          1e-06 1e-06 1e-06 1e-06 1e-06 1e-06
          1e-06 1e-06 1e-06 1e-06 1e-06 1e-06
          1e-06 1e-06 1e-06 1e-06 1e-06 1e-06
          1e-06 1e-06 1e-06 1e-06 1e-06 1e-06
          1e-06 1e-06 1e-06 1e-06 1e-06 1e-06
          1e-06 1e-06 1e-06 1e-06 1e-06 1e-06
          1e-06 1e-06 1e-06 1e-06 1e-06 1e-06
          1e-06 1e-06 1e-06 1e-06 1e-06 1e-06
          1e-06 1e-06 1e-06 1e-06 1e-06 1e-06
          1e-06 1e-06 1e-06 1e-06 1e-06 1e-06
          1e-06 1e-06 1e-06 1e-06 1e-06 1e-06
          1e-06 1e-06 1e-06 1e-06 1e-06 1e-06
          1e-06 1e-06 1e-06 1e-06
        </DataArray>
      </PointData>
      <CellData>
      </CellData>
      <Points>
        <DataArray type="Float32" Name="Points" NumberOfComponents="3" format="ascii" RangeMin="4.9219703085e-05" RangeMax="0.00011144302777">
          9.668731218e-05 3.1821396988e-05 3.5684988688e-05 9.5244409749e-05 3.2504114643e-05 3.6572091631e-05
          2.5299837944e-05 4.7711541811e-06 4.1949177103e-05 2.6724868803e-05 4.1974335545e-06 4.2936680984e-05
          5.0991235184e-05 1.800040809e-05 4.3929911044e-05 3.1079074688e-05 2.7506537663e-05 4.4661381253e-05
          5.1252387493e-05 1.7026903151e-05 4.5452776249e-05 5.3825591749e-05 1.7329344701e-05 4.5021035476e-05
          6.287603901e-05 3.2165738958e-05 4.5486740419e-05 4.9759059038e-05 7.3448327385e-06 4.5600700105e-05
          6.1542872572e-05 3.0917872209e-05 4.5509637857e-05 3.0471142964e-05 2.7401911211e-05 4.6380249842e-05
          7.8422883234e-05 9.0856030965e-07 4.6544628276e-05 6.1246319092e-05 5.3670055422e-06 4.6760826081e-05
          5.3631527408e-05 1.7233911421e-05 4.6834393288e-05 2.2278887627e-05 3.4358203266e-05 4.6904202463e-05
          5.0364935305e-05 6.9090633588e-06 4.7267447371e-05 7.8862169175e-05 1.653019126e-06 4.7506491683e-05
          6.2723513111e-05 5.250351478e-06 4.7828219977e-05 4.9991420383e-05 9.6634212241e-06 4.7836761951e-05
          7.0053880336e-05 9.8347863968e-06 4.8135574616e-05 5.1235292631e-05 1.0932236364e-05 4.8258563766e-05
          2.16522767e-05 3.4569751733e-05 4.8229507229e-05 8.9440298325e-05 3.5111908801e-05 4.8465433792e-05
          4.0608527343e-05 1.3202883565e-05 4.8944446462e-05 1.7739872419e-05 1.9303375666e-05 4.8675243306e-05
          2.2147778509e-05 3.4445198253e-05 4.872361751e-05 5.6649078033e-05 3.5176584788e-05 4.8975882237e-05
          2.2862990591e-05 3.589445987e-05 4.8567660997e-05 6.921646127e-05 1.0805888451e-05 4.9435853725e-05
          1.9201541363e-05 2.0064613636e-05 4.9462054449e-05 9.4198992883e-05 3.2392857975e-05 4.9967999075e-05
          4.5995799155e-05 1.1902544429e-05 5.0294260291e-05 4.1364895878e-05 1.2411252101e-05 5.040603719e-05
          9.3146722065e-05 2.7679492632e-05 5.0234371884e-05 8.8558947027e-05 3.4948741813e-05 5.0056543841e-05
          8.4745057393e-05 3.7596069888e-05 5.0094135077e-05 9.7850206657e-05 1.2909533325e-05 5.0526930863e-05
          1.8430964701e-05 1.9598026483e-05 5.0711361837e-05 5.6865585066e-05 3.6094785173e-05 5.053955465e-05
          2.0258463337e-05 3.8266905904e-05 5.0539390941e-05 1.9867655283e-05 3.9091439248e-05 5.0761747843e-05
          9.3891831057e-05 9.0856030965e-07 5.1061928389e-05 4.7219382395e-05 1.2912775674e-05 5.1198308938e-05
          1.7429714717e-05 1.8263619495e-05 5.1454251661e-05 9.3347822258e-05 3.1587587728e-05 5.1368740969e-05
          9.7593147075e-05 1.1822131455e-05 5.1971404901e-05 8.1850390416e-05 1.8221286155e-05 5.1619314036e-05
          9.404742741e-05 2.818507528e-05 5.1740407798e-05 8.465139399e-05 3.8476762711e-05 5.1691207773e-05
          8.0177582277e-05 1.8533379261e-05 5.2282139222e-05 9.2193469754e-05 2.4126480639e-05 5.216336649e-05
          9.4517527032e-05 1.4937401147e-06 5.2630712162e-05 1.4676671526e-05 1.1345156963e-05 5.2612624131e-05
          6.5653381171e-05 1.9883091227e-05 5.2990635595e-05 9.3813912827e-05 2.3540000257e-05 5.2767722082e-05
          6.7256143666e-05 1.9007855371e-05 5.3002495406e-05 6.1644423113e-05 2.6860529033e-05 5.3039555496e-05
          4.030798209e-06 7.9923875091e-06 5.4283853387e-05 1.5259418433e-05 1.148532283e-05 5.4337670008e-05
          6.1965445639e-05 2.8217176805e-05 5.4219166486e-05 7.4826210039e-05 8.3786708274e-06 5.4521209677e-05
          6.4838059188e-05 1.2954080375e-05 5.4953474319e-05 1.2547567167e-05 2.8486261726e-05 5.4986772739e-05
          5.1691813496e-06 7.2205425568e-06 5.5485255871e-05 6.6291227995e-05 1.1976852875e-05 5.5471489759e-05
          3.0151693863e-05 1.6016319933e-05 5.5140222685e-05 1.1110383639e-05 2.9600447306e-05 5.5154461734e-05
          7.5696363638e-05 7.4479812611e-06 5.5829517805e-05 6.8753419328e-05 1.2934167898e-05 5.5852135119e-05
          2.8647702493e-05 1.5317933503e-05 5.59052678e-05 1.1044934354e-06 2.945192864e-05 5.6066790421e-05
          2.1802959964e-05 4.2395531636e-06 5.7242221374e-05 2.3608272386e-05 4.5149972721e-06 5.7240253227e-05
          6.8737659603e-05 1.2622610484e-05 5.7651501265e-05 9.0856030965e-07 2.9757544326e-05 5.7842138631e-05
          3.1986201066e-05 1.4770654161e-05 5.8668367274e-05 3.1820341974e-05 1.3179998859e-05 5.9550035076e-05
          2.3400501959e-05 2.2666432415e-05 6.2410828832e-05 2.2383255782e-05 2.1624682631e-05 6.3513100031e-05
          6.5538122726e-05 3.1596904591e-05 6.8718189141e-05 6.4917650889e-05 3.0900562706e-05 7.0288268034e-05
        </DataArray>
      </Points>
      <Cells>
        <DataArray type="Int64" Name="connectivity" format="ascii" RangeMin="0" RangeMax="81">
          0 1 2 3 4 5
          6 7 8 9 10 11
          12 13 14 15 16 17
          18 19 20 21 22 23
          24 25 26 27 28 29
          30 31 32 33 34 35
          36 37 38 39 40 41
          42 43 44 45 46 47
          48 49 50 51 52 53
          54 55 56 57 58 59
          60 61 62 63 64 65
          66 67 68 69 70 71
          72 73 74 75 76 77
          78 79 80 81
        </DataArray>
        <DataArray type="Int64" Name="offsets" format="ascii" RangeMin="1" RangeMax="82">
          1 2 3 4 5 6
          7 8 9 10 11 12
          13 14 15 16 17 18
          19 20 21 22 23 24
          25 26 27 28 29 30
          31 32 33 34 35 36
          37 38 39 40 41 42
          43 44 45 46 47 48
          49 50 51 52 53 54
          55 56 57 58 59 60
          61 62 63 64 65 66
          67 68 69 70 71 72
          73 74 75 76 77 78
          79 80 81 82
        </DataArray>
        <DataArray type="UInt8" Name="types" format="ascii" RangeMin="1" RangeMax="1">
          1 1 1 1 1 1
          1 1 1 1 1 1
          1 1 1 1 1 1
          1 1 1 1 1 1
          1 1 1 1 1 1
          1 1 1 1 1 1
          1 1 1 1 1 1
          1 1 1 1 1 1
          1 1 1 1 1 1
          1 1 1 1 1 1
          1 1 1 1 1 1
          1 1 1 1 1 1
          1 1 1 1 1 1
          1 1 1 1
        </DataArray>
      </Cells>
    </Piece>
  </UnstructuredGrid>
</VTKFile>
