  Granular Flow Simulation

       0 atoms
       6 atom types
       1 nutrients

   0.000000e-04   1e-04  xlo xhi
   0.000000e-04   0.2e-04  ylo yhi
   0.000000e-04   1e-04  zlo zhi

 Atoms


 Nutrients

     1 il17 l 0 0 0 0 0 0 0

 Type Name

     1 stem
     2 ta
     3 diff
     4 tcell
     5 dc
     6 bm

 Diffusion Coeffs

     il17 1.6e-9

 Division Counter

     stem 0
     ta 4
     diff 0
     tcell 0
     dc 0
     bm 0

 Growth Rate

    stem 0.1
    ta 0
    diff 0
    tcell 0.1
    dc 0
    bm 0

 Decay

    stem 0.01
    ta 0
    diff 0
    tcell 0.01
    dc 0
    bm 0
