<?xml version="1.0"?>
<VTKFile type="UnstructuredGrid" version="0.1" byte_order="LittleEndian" header_type="UInt32" compressor="vtkZLibDataCompressor">
  <UnstructuredGrid>
    <Piece NumberOfPoints="82" NumberOfCells="82">
      <PointData>
        <DataArray type="Int32" Name="id" format="ascii" RangeMin="1" RangeMax="344983">
          26 344903 344904 16 22 344910
          344909 7 344906 31 344911 5
          344915 40 344913 14 33 20
          344916 344920 17 6 344922 15
          38 344924 344929 344931 344927 25
          344926 3 32 9 344936 19
          344939 344934 37 8 344935 1
          344947 11 344941 34 12 344950
          344951 27 18 35 344961 344962
          344952 344954 344955 344959 29 23
          21 39 10 344963 36 344965
          344970 13 344966 344972 41 344969
          30 344973 344979 344983 2 344982
          24 28 344981 4
        </DataArray>
        <DataArray type="Int32" Name="type" format="ascii" RangeMin="1" RangeMax="1">
          1 1 1 1 1 1
          1 1 1 1 1 1
          1 1 1 1 1 1
          1 1 1 1 1 1
          1 1 1 1 1 1
          1 1 1 1 1 1
          1 1 1 1 1 1
          1 1 1 1 1 1
          1 1 1 1 1 1
          1 1 1 1 1 1
          1 1 1 1 1 1
          1 1 1 1 1 1
          1 1 1 1 1 1
          1 1 1 1
        </DataArray>
        <DataArray type="Float64" Name="diameter" format="ascii" RangeMin="1e-06" RangeMax="1e-06">
          1e-06 1e-06 1e-06 1e-06 1e-06 1e-06
          1e-06 1e-06 1e-06 1e-06 1e-06 1e-06
          1e-06 1e-06 1e-06 1e-06 1e-06 1e-06
          1e-06 1e-06 1e-06 1e-06 1e-06 1e-06
          1e-06 1e-06 1e-06 1e-06 1e-06 1e-06
          1e-06 1e-06 1e-06 1e-06 1e-06 1e-06
          1e-06 1e-06 1e-06 1e-06 1e-06 1e-06
          1e-06 1e-06 1e-06 1e-06 1e-06 1e-06
          1e-06 1e-06 1e-06 1e-06 1e-06 1e-06
          1e-06 1e-06 1e-06 1e-06 1e-06 1e-06
          1e-06 1e-06 1e-06 1e-06 1e-06 1e-06
          1e-06 1e-06 1e-06 1e-06 1e-06 1e-06
          1e-06 1e-06 1e-06 1e-06 1e-06 1e-06
          1e-06 1e-06 1e-06 1e-06
        </DataArray>
      </PointData>
      <CellData>
      </CellData>
      <Points>
        <DataArray type="Float32" Name="Points" NumberOfComponents="3" format="ascii" RangeMin="4.6198150784e-05" RangeMax="0.00011688183004">
          2.9882372473e-05 1.3363014659e-05 3.8268772187e-05 2.9560900657e-05 1.3946183572e-05 4.0969243855e-05
          5.0374572311e-05 2.6640471333e-05 4.0881870518e-05 5.0698345149e-05 2.7666610549e-05 4.1357416194e-05
          9.0103831099e-06 2.7509200663e-05 4.2202398618e-05 1.5333551346e-05 7.8034490798e-06 4.3972140702e-05
          6.7140965257e-05 1.5090711713e-05 4.3583571824e-05 6.7255663453e-05 1.6889829567e-05 4.2875199142e-05
          8.0078607425e-06 2.8967111575e-05 4.3654592446e-05 1.3581940038e-05 7.7045233411e-06 4.3479194574e-05
          5.3348703659e-05 2.922036947e-05 4.4260596042e-05 8.3486731455e-05 3.8023499656e-06 4.3973639549e-05
          8.2702579675e-05 1.0892210412e-05 4.4869913836e-05 8.210199303e-05 2.5982104489e-05 4.4162901759e-05
          8.2075835962e-05 4.545869615e-06 4.5863351261e-05 5.2995415899e-05 3.002604717e-05 4.4860938942e-05
          2.9799051845e-05 7.0562432484e-06 4.5409746235e-05 8.1570149632e-05 1.1121455827e-05 4.5284155931e-05
          8.2886217569e-05 2.7365385904e-05 4.6060984459e-05 3.1427531212e-05 6.4599535108e-06 4.698203702e-05
          4.5019372919e-05 1.8371980559e-06 4.6025332267e-05 7.889817789e-05 3.2437059417e-05 4.6381021093e-05
          9.2754353318e-06 2.301753193e-05 4.7706926125e-05 9.3935404948e-06 2.4838334866e-05 4.6782799473e-05
          3.8900747313e-05 3.0640454497e-05 4.6551311243e-05 4.4579272071e-05 9.0856030965e-07 4.8035639338e-05
          6.8063782237e-05 1.0035650121e-05 4.8128218623e-05 6.3996405515e-05 3.0663497455e-05 4.8051595513e-05
          7.8870114521e-05 3.363756332e-05 4.8756897741e-05 5.8947694924e-05 2.3491505999e-05 4.813248961e-05
          3.9912785724e-05 3.0330615118e-05 4.9039532314e-05 6.7409106123e-05 9.7019947134e-06 4.8810150474e-05
          3.0677590985e-05 1.4161444597e-05 4.8543821322e-05 6.4158833993e-05 2.9994191209e-05 4.8763002269e-05
          2.6228615752e-05 1.5792984414e-05 5.0001959607e-05 9.6125870186e-05 2.2172765966e-05 4.9190446589e-05
          7.7383483585e-05 3.6077282857e-05 4.999938028e-05 5.9360201703e-05 2.393757859e-05 4.9994661822e-05
          7.7397511632e-05 3.438155909e-05 4.9977137678e-05 4.2880921683e-05 1.3896369637e-05 5.0294507673e-05
          3.0835519283e-05 1.4209974324e-05 5.0002538046e-05 2.5494944566e-05 1.6951084035e-05 5.0308422942e-05
          4.4385160436e-05 1.4818532691e-05 5.0005579396e-05 1.8080721929e-05 1.6213241906e-05 5.0807881053e-05
          9.6741918242e-05 2.2554015231e-05 5.0006801757e-05 4.5636043069e-06 3.3214502764e-05 5.0528920838e-05
          7.256653771e-05 2.1045937046e-06 5.1338385674e-05 1.6887765014e-05 1.7515934815e-05 5.0271424698e-05
          6.3285049691e-05 5.4691845435e-06 5.0546837883e-05 8.6282219854e-05 3.4820277506e-05 5.1554332458e-05
          9.7609947261e-05 3.7715155486e-05 5.1513256039e-05 6.1650796852e-05 5.7657171055e-06 5.2305997087e-05
          6.2321239966e-05 7.3056098699e-06 5.1314473239e-05 3.451779412e-05 1.3374271475e-05 5.1236202125e-05
          4.230821105e-06 3.3338892536e-05 5.1445433201e-05 9.7434487543e-05 3.9091439248e-05 5.1378421631e-05
          7.2077731602e-05 2.5494543934e-06 5.2081006288e-05 8.6340915004e-05 3.531949551e-05 5.2410810895e-05
          3.3392389014e-05 8.0382878878e-06 5.3914965974e-05 6.2935636379e-05 8.1310572568e-06 5.3823176131e-05
          3.4483025956e-05 1.3712096006e-05 5.4030551837e-05 9.9133976619e-05 2.0977437089e-05 5.5328051531e-05
          8.3704690041e-05 3.9100963477e-05 5.5216081819e-05 3.3613665437e-05 8.7671924121e-06 5.4574713431e-05
          9.6902556834e-05 1.713072561e-05 5.5871114455e-05 9.8410964711e-05 2.1675095923e-05 5.4543492297e-05
          1.8634145817e-05 7.702304174e-06 5.5779404647e-05 1.7975640731e-05 9.3963217296e-06 5.695746222e-05
          9.5383446023e-05 1.7147373001e-05 5.5884542235e-05 3.4750850318e-05 3.2586904126e-05 5.5763393902e-05
          8.8958377091e-06 3.3593871194e-05 5.7206638303e-05 8.3594764874e-05 3.9054499211e-05 5.6189433963e-05
          3.4551449062e-05 3.4201922972e-05 5.7592234953e-05 8.8121223598e-06 3.2323332562e-05 5.7515739172e-05
          3.2775267755e-05 3.9258061406e-06 5.8261903177e-05 5.2273993788e-05 1.6035738781e-06 5.8965393691e-05
          3.6273752357e-06 6.1609462136e-06 5.9811867686e-05 8.6614862084e-05 9.0856030965e-07 5.9274581872e-05
          3.1249626772e-05 4.5171696001e-06 6.0072914494e-05 8.7202693976e-05 2.055371624e-06 6.1431186623e-05
          4.5129299906e-06 5.2059467635e-06 6.0092024796e-05 5.219322702e-05 2.4743233098e-06 6.1568607634e-05
        </DataArray>
      </Points>
      <Cells>
        <DataArray type="Int64" Name="connectivity" format="ascii" RangeMin="0" RangeMax="81">
          0 1 2 3 4 5
          6 7 8 9 10 11
          12 13 14 15 16 17
          18 19 20 21 22 23
          24 25 26 27 28 29
          30 31 32 33 34 35
          36 37 38 39 40 41
          42 43 44 45 46 47
          48 49 50 51 52 53
          54 55 56 57 58 59
          60 61 62 63 64 65
          66 67 68 69 70 71
          72 73 74 75 76 77
          78 79 80 81
        </DataArray>
        <DataArray type="Int64" Name="offsets" format="ascii" RangeMin="1" RangeMax="82">
          1 2 3 4 5 6
          7 8 9 10 11 12
          13 14 15 16 17 18
          19 20 21 22 23 24
          25 26 27 28 29 30
          31 32 33 34 35 36
          37 38 39 40 41 42
          43 44 45 46 47 48
          49 50 51 52 53 54
          55 56 57 58 59 60
          61 62 63 64 65 66
          67 68 69 70 71 72
          73 74 75 76 77 78
          79 80 81 82
        </DataArray>
        <DataArray type="UInt8" Name="types" format="ascii" RangeMin="1" RangeMax="1">
          1 1 1 1 1 1
          1 1 1 1 1 1
          1 1 1 1 1 1
          1 1 1 1 1 1
          1 1 1 1 1 1
          1 1 1 1 1 1
          1 1 1 1 1 1
          1 1 1 1 1 1
          1 1 1 1 1 1
          1 1 1 1 1 1
          1 1 1 1 1 1
          1 1 1 1 1 1
          1 1 1 1 1 1
          1 1 1 1
        </DataArray>
      </Cells>
    </Piece>
  </UnstructuredGrid>
</VTKFile>
