<?xml version="1.0"?>
<VTKFile type="UnstructuredGrid" version="0.1" byte_order="LittleEndian" header_type="UInt32" compressor="vtkZLibDataCompressor">
  <UnstructuredGrid>
    <Piece NumberOfPoints="82" NumberOfCells="82">
      <PointData>
        <DataArray type="Int32" Name="id" format="ascii" RangeMin="1" RangeMax="189360">
          25 189281 189283 189280 8 2
          189291 189289 6 17 189288 28
          39 189293 14 16 26 189290
          189301 189294 189299 189300 189296 31
          189308 4 13 15 189305 189307
          189319 27 18 29 19 189314
          189332 35 23 189303 189329 22
          189331 20 21 11 1 189325
          33 189312 189324 189337 189323 32
          189327 189330 9 12 34 189343
          7 30 41 38 189341 189348
          189342 3 189346 24 189352 189356
          189353 36 189351 189357 189355 5
          40 10 37 189360
        </DataArray>
        <DataArray type="Int32" Name="type" format="ascii" RangeMin="1" RangeMax="1">
          1 1 1 1 1 1
          1 1 1 1 1 1
          1 1 1 1 1 1
          1 1 1 1 1 1
          1 1 1 1 1 1
          1 1 1 1 1 1
          1 1 1 1 1 1
          1 1 1 1 1 1
          1 1 1 1 1 1
          1 1 1 1 1 1
          1 1 1 1 1 1
          1 1 1 1 1 1
          1 1 1 1 1 1
          1 1 1 1
        </DataArray>
        <DataArray type="Float64" Name="diameter" format="ascii" RangeMin="1e-06" RangeMax="1e-06">
          1e-06 1e-06 1e-06 1e-06 1e-06 1e-06
          1e-06 1e-06 1e-06 1e-06 1e-06 1e-06
          1e-06 1e-06 1e-06 1e-06 1e-06 1e-06
          1e-06 1e-06 1e-06 1e-06 1e-06 1e-06
          1e-06 1e-06 1e-06 1e-06 1e-06 1e-06
          1e-06 1e-06 1e-06 1e-06 1e-06 1e-06
          1e-06 1e-06 1e-06 1e-06 1e-06 1e-06
          1e-06 1e-06 1e-06 1e-06 1e-06 1e-06
          1e-06 1e-06 1e-06 1e-06 1e-06 1e-06
          1e-06 1e-06 1e-06 1e-06 1e-06 1e-06
          1e-06 1e-06 1e-06 1e-06 1e-06 1e-06
          1e-06 1e-06 1e-06 1e-06 1e-06 1e-06
          1e-06 1e-06 1e-06 1e-06 1e-06 1e-06
          1e-06 1e-06 1e-06 1e-06
        </DataArray>
      </PointData>
      <CellData>
      </CellData>
      <Points>
        <DataArray type="Float32" Name="Points" NumberOfComponents="3" format="ascii" RangeMin="5.0188373756e-05" RangeMax="0.0001167941616">
          7.4024799687e-05 1.8603392164e-05 4.2025360017e-05 7.4027084338e-05 4.1767298171e-06 4.3324394937e-05
          4.2063649744e-05 6.0391957959e-06 4.3151645514e-05 7.4652591138e-05 1.8514174371e-05 4.3737945816e-05
          7.5445714174e-05 3.4248441807e-06 4.4194552174e-05 4.1922176024e-05 6.1015521169e-06 4.4971293391e-05
          5.0551094319e-05 3.074164124e-05 4.4711432565e-05 8.8717781182e-05 3.2890609873e-05 4.4955791964e-05
          7.2220405855e-05 2.0796280296e-05 4.5461038098e-05 5.9435165895e-05 3.1068440876e-05 4.5456654334e-05
          5.8376510424e-05 3.1521161873e-05 4.5290300477e-05 8.8128821517e-05 3.4587334085e-05 4.5286378736e-05
          7.470237324e-05 3.0577317375e-05 4.5942815632e-05 7.5031981396e-05 3.236851262e-05 4.5808621508e-05
          5.8321173128e-05 3.3332125895e-05 4.551915481e-05 5.0463080697e-05 3.0282080843e-05 4.647667447e-05
          5.8315312344e-05 9.9490371213e-06 4.7424415243e-05 7.2380564234e-05 2.116568794e-05 4.72423053e-05
          8.7614142103e-05 3.0749528378e-05 4.7343615734e-05 5.9069381678e-05 3.1016832509e-05 4.7245106543e-05
          2.3669044822e-05 1.1186562915e-05 4.7620313126e-05 4.7571375035e-05 2.4693035812e-05 4.7690922656e-05
          5.7669993112e-05 8.6398858912e-06 4.8522011639e-05 2.4500704967e-05 1.2535995666e-05 4.8527173931e-05
          5.9512531152e-05 2.2111278668e-05 4.8975802201e-05 4.622094275e-05 2.5451046895e-05 4.8658796004e-05
          4.7915713367e-05 2.6078871088e-05 4.8535381211e-05 3.0258916013e-05 3.4240743844e-05 4.8736645113e-05
          4.945866749e-06 8.1319885794e-06 4.9277601647e-05 4.0933891796e-06 1.607091508e-05 4.9152884458e-05
          1.4067214579e-05 1.9396808057e-05 4.9267378927e-05 8.7808912212e-05 3.0976389098e-05 4.9145179219e-05
          8.198012074e-05 3.6188244849e-05 4.9344722356e-05 7.8151213529e-05 2.2961361537e-05 4.998820441e-05
          5.3861447668e-05 3.4708777093e-05 4.9965929065e-05 6.6206695919e-05 3.5122800909e-05 4.9562528147e-05
          5.0151360483e-05 9.0856030965e-07 5.0447284593e-05 6.6746484663e-05 5.9070193856e-06 5.044234058e-05
          5.82313005e-05 2.2348265702e-05 5.0255377573e-05 4.8170208174e-05 2.5695360819e-05 5.030263128e-05
          5.762805813e-06 3.3586675272e-05 5.0398070016e-05 4.1320149649e-06 3.4366363252e-05 5.0137998187e-05
          9.8009833891e-05 3.5200166167e-05 5.0079088396e-05 6.5754240495e-05 3.6828281736e-05 5.0033311709e-05
          4.6137342906e-06 6.9120214903e-06 5.0595324865e-05 1.1579348211e-05 1.453283312e-05 5.0738857681e-05
          3.3555868413e-06 1.5280635125e-05 5.0624665164e-05 1.1538487342e-05 1.6347681594e-05 5.0539638323e-05
          1.422108744e-05 2.0032113753e-05 5.0972586905e-05 3.0380189855e-05 3.4242399124e-05 5.0558821385e-05
          6.7075663537e-05 4.4152302507e-06 5.1442959375e-05 5.011214671e-05 2.9885351978e-05 5.1220729802e-05
          8.1745056377e-05 3.5935288906e-05 5.1137983974e-05 2.7784224585e-05 3.2784378163e-06 5.1878450904e-05
          7.7493321442e-05 2.2247037123e-05 5.1534796512e-05 5.3502877563e-05 3.4772307117e-05 5.1755458117e-05
          9.8556862213e-05 3.524218846e-05 5.1820934459e-05 4.9788504839e-05 9.8347186395e-07 5.2230796427e-05
          9.152578059e-06 2.6741008696e-05 5.2131606935e-05 3.2901858503e-05 3.5994151403e-05 5.2444378525e-05
          4.9980633776e-05 2.9489581721e-05 5.2998675528e-05 5.9808277001e-05 3.5024382669e-05 5.2772102208e-05
          5.8408450059e-06 1.6994732505e-05 5.3244995797e-05 3.4537431929e-05 3.6431149056e-05 5.3129180742e-05
          2.8162337912e-05 3.8793268686e-06 5.3561008826e-05 5.5813979998e-06 1.8672597434e-05 5.3917661717e-05
          8.6946247393e-06 2.7117081117e-05 5.3858999308e-05 2.4781442335e-05 3.0935557334e-06 5.4025091231e-05
          6.0783302615e-05 3.5839926568e-05 5.4083295254e-05 1.9946599423e-05 7.6574742707e-06 5.4650103266e-05
          6.7141831096e-05 7.5658990681e-06 5.4727232055e-05 8.8739223429e-05 9.6292642411e-06 5.4967029428e-05
          9.5440795121e-05 2.6872225135e-05 5.4657917644e-05 6.5919724875e-05 8.8510087153e-06 5.5163094657e-05
          2.5260742404e-05 2.1463463327e-06 5.5511060054e-05 4.017876563e-05 2.4682267394e-05 5.5880533182e-05
          2.0596973627e-05 7.1041563388e-06 5.6264376326e-05 3.9043541619e-05 2.3347090973e-05 5.6393946579e-05
          9.5627474366e-05 2.7591095204e-05 5.6326269259e-05 8.9634762844e-05 9.7393458418e-06 5.6554770708e-05
          8.4747218352e-05 2.4952572858e-05 5.7706132793e-05 8.3797523985e-05 2.6155697924e-05 5.8698904468e-05
        </DataArray>
      </Points>
      <Cells>
        <DataArray type="Int64" Name="connectivity" format="ascii" RangeMin="0" RangeMax="81">
          0 1 2 3 4 5
          6 7 8 9 10 11
          12 13 14 15 16 17
          18 19 20 21 22 23
          24 25 26 27 28 29
          30 31 32 33 34 35
          36 37 38 39 40 41
          42 43 44 45 46 47
          48 49 50 51 52 53
          54 55 56 57 58 59
          60 61 62 63 64 65
          66 67 68 69 70 71
          72 73 74 75 76 77
          78 79 80 81
        </DataArray>
        <DataArray type="Int64" Name="offsets" format="ascii" RangeMin="1" RangeMax="82">
          1 2 3 4 5 6
          7 8 9 10 11 12
          13 14 15 16 17 18
          19 20 21 22 23 24
          25 26 27 28 29 30
          31 32 33 34 35 36
          37 38 39 40 41 42
          43 44 45 46 47 48
          49 50 51 52 53 54
          55 56 57 58 59 60
          61 62 63 64 65 66
          67 68 69 70 71 72
          73 74 75 76 77 78
          79 80 81 82
        </DataArray>
        <DataArray type="UInt8" Name="types" format="ascii" RangeMin="1" RangeMax="1">
          1 1 1 1 1 1
          1 1 1 1 1 1
          1 1 1 1 1 1
          1 1 1 1 1 1
          1 1 1 1 1 1
          1 1 1 1 1 1
          1 1 1 1 1 1
          1 1 1 1 1 1
          1 1 1 1 1 1
          1 1 1 1 1 1
          1 1 1 1 1 1
          1 1 1 1 1 1
          1 1 1 1 1 1
          1 1 1 1
        </DataArray>
      </Cells>
    </Piece>
  </UnstructuredGrid>
</VTKFile>
