<?xml version="1.0"?>
<VTKFile type="UnstructuredGrid" version="0.1" byte_order="LittleEndian" header_type="UInt32" compressor="vtkZLibDataCompressor">
  <UnstructuredGrid>
    <Piece NumberOfPoints="82" NumberOfCells="82">
      <PointData>
        <DataArray type="Int32" Name="id" format="ascii" RangeMin="1" RangeMax="67915">
          29 67915 40 67913 9 67911
          21 15 67910 67909 37 22
          67905 67903 67902 10 35 23
          3 20 5 67901 16 67899
          67897 1 67895 27 31 24
          67893 67892 67890 67889 32 38
          67886 67884 67883 67882 67876 67869
          8 67868 67863 67862 67861 67859
          6 34 18 67856 2 67854
          67853 13 19 67852 11 4
          67851 14 67850 17 67849 12
          67845 25 26 41 67844 33
          67841 67840 67838 28 30 7
          67836 39 67834 36
        </DataArray>
        <DataArray type="Int32" Name="type" format="ascii" RangeMin="1" RangeMax="1">
          1 1 1 1 1 1
          1 1 1 1 1 1
          1 1 1 1 1 1
          1 1 1 1 1 1
          1 1 1 1 1 1
          1 1 1 1 1 1
          1 1 1 1 1 1
          1 1 1 1 1 1
          1 1 1 1 1 1
          1 1 1 1 1 1
          1 1 1 1 1 1
          1 1 1 1 1 1
          1 1 1 1 1 1
          1 1 1 1
        </DataArray>
        <DataArray type="Float64" Name="diameter" format="ascii" RangeMin="1e-06" RangeMax="1e-06">
          1e-06 1e-06 1e-06 1e-06 1e-06 1e-06
          1e-06 1e-06 1e-06 1e-06 1e-06 1e-06
          1e-06 1e-06 1e-06 1e-06 1e-06 1e-06
          1e-06 1e-06 1e-06 1e-06 1e-06 1e-06
          1e-06 1e-06 1e-06 1e-06 1e-06 1e-06
          1e-06 1e-06 1e-06 1e-06 1e-06 1e-06
          1e-06 1e-06 1e-06 1e-06 1e-06 1e-06
          1e-06 1e-06 1e-06 1e-06 1e-06 1e-06
          1e-06 1e-06 1e-06 1e-06 1e-06 1e-06
          1e-06 1e-06 1e-06 1e-06 1e-06 1e-06
          1e-06 1e-06 1e-06 1e-06 1e-06 1e-06
          1e-06 1e-06 1e-06 1e-06 1e-06 1e-06
          1e-06 1e-06 1e-06 1e-06 1e-06 1e-06
          1e-06 1e-06 1e-06 1e-06
        </DataArray>
      </PointData>
      <CellData>
      </CellData>
      <Points>
        <DataArray type="Float32" Name="Points" NumberOfComponents="3" format="ascii" RangeMin="4.2062143924e-05" RangeMax="0.000107183269">
          8.963685832e-05 2.6462146707e-05 2.0906049031e-05 4.8464818974e-05 1.5515284758e-05 5.8801364503e-05
          8.2505212049e-05 3.5757268051e-05 3.4028438677e-05 6.4390493208e-05 2.5792867746e-05 5.7573794038e-05
          9.2685339041e-05 2.4374150598e-05 3.5043718526e-05 5.3165720601e-05 6.4241421569e-06 5.6385346397e-05
          1.7534524886e-05 4.656202691e-06 3.7948440877e-05 5.1749811973e-05 5.8639166127e-06 3.9557868149e-05
          7.6607037045e-05 2.9522203477e-05 5.6200096878e-05 8.7612032075e-05 2.4622813726e-05 5.6622451666e-05
          5.9602611145e-05 9.7733609437e-06 4.0628758143e-05 1.3455182852e-05 2.0202645828e-05 4.1295403207e-05
          2.5436795113e-05 3.9091439248e-05 5.534457523e-05 8.7728294602e-06 1.7087029846e-05 5.4487045418e-05
          5.8655317844e-05 3.8137461615e-06 5.470537144e-05 9.3791211839e-05 1.9378876459e-06 4.3717245717e-05
          4.4852287829e-05 1.350400089e-05 4.5142889576e-05 3.3097239793e-05 3.5314624256e-05 4.5999848226e-05
          2.402359496e-05 5.3095986914e-06 4.6576074965e-05 9.3166025181e-05 1.5052463823e-05 4.7788580559e-05
          4.0226048441e-05 2.0699651941e-05 4.7182551498e-05 5.2785049775e-05 2.2525780878e-05 5.2839426644e-05
          4.8749934649e-05 3.3186811379e-06 4.8453868658e-05 2.1218136681e-05 3.815141099e-06 5.3428779211e-05
          6.4592823037e-05 2.9829343475e-05 5.2999021136e-05 7.9954415924e-06 2.3266991775e-05 4.75671186e-05
          5.477960076e-05 1.7461072275e-05 5.2676856285e-05 7.058288611e-05 2.8411963285e-05 4.8833513574e-05
          1.0417445083e-05 3.0544350011e-05 4.8601701565e-05 3.2194995583e-05 3.1951909477e-05 4.6922119509e-05
          5.0028138503e-05 1.0149245782e-06 5.3731804655e-05 3.4314850836e-06 9.0856030965e-07 5.3048977861e-05
          8.9409753855e-05 2.3960434191e-05 5.1914670621e-05 2.6059709853e-05 2.4343858968e-05 5.0673894293e-05
          2.6261424864e-05 3.5434048186e-05 4.9337388191e-05 4.4468833948e-05 3.5795052099e-05 4.8603749747e-05
          2.8017802833e-06 8.7108264779e-06 5.1104540034e-05 8.3820428699e-05 1.4702679891e-06 5.1939590776e-05
          2.4281765945e-05 3.7616424379e-05 5.0443959481e-05 7.6874130173e-05 3.201331856e-05 5.0642687711e-05
          8.5510851932e-05 7.3547812462e-06 4.9972528359e-05 4.2858624511e-05 3.6324923713e-05 4.9783080613e-05
          8.5051717178e-05 8.0040763351e-06 5.1116498071e-05 2.7645302907e-05 3.5531873436e-05 4.8649813834e-05
          3.2965421269e-05 3.2884105167e-05 4.8790509027e-05 1.0617216503e-05 3.0647741369e-05 4.7289402573e-05
          7.1177091741e-05 2.8131837098e-05 4.7629553592e-05 7.1927715908e-06 2.1708459826e-05 4.8578705901e-05
          7.8171768109e-05 3.3040145354e-05 5.0370163081e-05 2.497839705e-05 3.9091439248e-05 5.1321432693e-05
          8.3814265963e-05 1.4586391899e-06 5.0613431085e-05 4.8432473704e-05 4.3924160309e-06 4.7511181037e-05
          3.6016588183e-06 7.2251691563e-06 5.2303141274e-05 3.9053957153e-05 1.9682156562e-05 4.6720298997e-05
          9.24094129e-05 1.5560959582e-05 4.6706176363e-05 2.5560937502e-05 2.4122209652e-05 5.291663183e-05
          8.9266017312e-05 2.215735185e-05 5.2666197007e-05 2.5559142159e-05 6.164666047e-06 4.7572040785e-05
          2.2247791094e-06 1.506079343e-06 5.2877581766e-05 4.9707505241e-05 9.0856030965e-07 5.2443687309e-05
          3.3333522879e-05 3.350746556e-05 4.6615517931e-05 5.6490429415e-05 1.6838523152e-05 5.332012006e-05
          4.5126063924e-05 1.3486419448e-05 4.7448371333e-05 6.6041982791e-05 2.874403981e-05 5.3260129789e-05
          9.2944472271e-05 9.8335806342e-07 4.5523742301e-05 2.2868889573e-05 3.6500459828e-06 5.4692183767e-05
          1.3857704289e-05 1.8875973183e-05 4.2984076572e-05 5.2623017837e-05 2.2683816496e-05 5.5151551351e-05
          5.8863079175e-05 2.483695198e-06 5.3971340094e-05 9.8906884887e-06 1.5789597455e-05 5.4352942243e-05
          5.8648551203e-05 9.8438149507e-06 4.268433986e-05 2.6061719836e-05 3.876917981e-05 5.4254265706e-05
          5.3471423598e-05 5.8715704654e-06 3.9448757889e-05 1.8217184333e-05 4.7811881814e-06 4.0137634642e-05
          9.3032445875e-05 2.3484526537e-05 3.7100355257e-05 8.7951782916e-05 2.3430471629e-05 5.5781587434e-05
          7.5860327343e-05 2.8451957405e-05 5.5422588048e-05 5.3035571909e-05 6.6926486397e-06 5.8687011915e-05
          8.1357393356e-05 3.6945686588e-05 3.530639151e-05 6.619397027e-05 2.6029150831e-05 5.8237073972e-05
          8.9657223725e-05 2.6177698601e-05 2.3209851861e-05 4.7247867769e-05 1.654632797e-05 6.0190755903e-05
        </DataArray>
      </Points>
      <Cells>
        <DataArray type="Int64" Name="connectivity" format="ascii" RangeMin="0" RangeMax="81">
          0 1 2 3 4 5
          6 7 8 9 10 11
          12 13 14 15 16 17
          18 19 20 21 22 23
          24 25 26 27 28 29
          30 31 32 33 34 35
          36 37 38 39 40 41
          42 43 44 45 46 47
          48 49 50 51 52 53
          54 55 56 57 58 59
          60 61 62 63 64 65
          66 67 68 69 70 71
          72 73 74 75 76 77
          78 79 80 81
        </DataArray>
        <DataArray type="Int64" Name="offsets" format="ascii" RangeMin="1" RangeMax="82">
          1 2 3 4 5 6
          7 8 9 10 11 12
          13 14 15 16 17 18
          19 20 21 22 23 24
          25 26 27 28 29 30
          31 32 33 34 35 36
          37 38 39 40 41 42
          43 44 45 46 47 48
          49 50 51 52 53 54
          55 56 57 58 59 60
          61 62 63 64 65 66
          67 68 69 70 71 72
          73 74 75 76 77 78
          79 80 81 82
        </DataArray>
        <DataArray type="UInt8" Name="types" format="ascii" RangeMin="1" RangeMax="1">
          1 1 1 1 1 1
          1 1 1 1 1 1
          1 1 1 1 1 1
          1 1 1 1 1 1
          1 1 1 1 1 1
          1 1 1 1 1 1
          1 1 1 1 1 1
          1 1 1 1 1 1
          1 1 1 1 1 1
          1 1 1 1 1 1
          1 1 1 1 1 1
          1 1 1 1 1 1
          1 1 1 1 1 1
          1 1 1 1
        </DataArray>
      </Cells>
    </Piece>
  </UnstructuredGrid>
</VTKFile>
