<?xml version="1.0"?>
<VTKFile type="UnstructuredGrid" version="0.1" byte_order="LittleEndian" header_type="UInt32" compressor="vtkZLibDataCompressor">
  <UnstructuredGrid>
    <Piece NumberOfPoints="82" NumberOfCells="82">
      <PointData>
        <DataArray type="Int32" Name="id" format="ascii" RangeMin="1" RangeMax="322704">
          22 322704 36 322702 29 322701
          2 322700 322697 40 8 4
          27 322695 13 18 322694 3
          322693 322692 21 16 41 322691
          31 322690 28 322689 17 26
          322688 322686 322683 322682 322681 322680
          322675 20 33 322674 322667 322662
          322661 11 322653 322652 322650 322648
          322646 322645 6 7 322644 322641
          322639 322638 39 32 25 38
          322636 322635 15 322634 9 35
          23 37 34 30 1 19
          322633 12 322630 322628 10 5
          14 322626 24 322624
        </DataArray>
        <DataArray type="Int32" Name="type" format="ascii" RangeMin="1" RangeMax="1">
          1 1 1 1 1 1
          1 1 1 1 1 1
          1 1 1 1 1 1
          1 1 1 1 1 1
          1 1 1 1 1 1
          1 1 1 1 1 1
          1 1 1 1 1 1
          1 1 1 1 1 1
          1 1 1 1 1 1
          1 1 1 1 1 1
          1 1 1 1 1 1
          1 1 1 1 1 1
          1 1 1 1 1 1
          1 1 1 1
        </DataArray>
        <DataArray type="Float64" Name="diameter" format="ascii" RangeMin="1e-06" RangeMax="1e-06">
          1e-06 1e-06 1e-06 1e-06 1e-06 1e-06
          1e-06 1e-06 1e-06 1e-06 1e-06 1e-06
          1e-06 1e-06 1e-06 1e-06 1e-06 1e-06
          1e-06 1e-06 1e-06 1e-06 1e-06 1e-06
          1e-06 1e-06 1e-06 1e-06 1e-06 1e-06
          1e-06 1e-06 1e-06 1e-06 1e-06 1e-06
          1e-06 1e-06 1e-06 1e-06 1e-06 1e-06
          1e-06 1e-06 1e-06 1e-06 1e-06 1e-06
          1e-06 1e-06 1e-06 1e-06 1e-06 1e-06
          1e-06 1e-06 1e-06 1e-06 1e-06 1e-06
          1e-06 1e-06 1e-06 1e-06 1e-06 1e-06
          1e-06 1e-06 1e-06 1e-06 1e-06 1e-06
          1e-06 1e-06 1e-06 1e-06 1e-06 1e-06
          1e-06 1e-06 1e-06 1e-06
        </DataArray>
      </PointData>
      <CellData>
      </CellData>
      <Points>
        <DataArray type="Float32" Name="Points" NumberOfComponents="3" format="ascii" RangeMin="4.8676349679e-05" RangeMax="0.00011390106205">
          1.3773138562e-05 2.4302720703e-05 3.9863083657e-05 3.3868633182e-05 6.4942173594e-06 6.1193037254e-05
          9.5142611826e-05 1.7694650523e-05 4.1858365876e-05 4.4516069465e-05 3.087485311e-05 6.0658643633e-05
          3.535482756e-05 2.1892021323e-05 4.2330975702e-05 7.7640026575e-05 6.25491748e-06 5.8046669437e-05
          1.5394622096e-05 1.300621534e-05 4.4842407078e-05 7.9330173321e-05 3.0223689464e-05 5.7344779634e-05
          6.9440378866e-05 8.1290527305e-06 5.4345440731e-05 9.8431097285e-05 2.0821069484e-05 4.5565560868e-05
          4.5801476517e-05 1.1353129594e-05 4.623226414e-05 5.105548189e-05 3.1258989566e-06 4.6709174057e-05
          9.098854207e-05 3.8166515878e-05 4.7227036703e-05 9.0700094006e-05 2.771598156e-05 5.3036052122e-05
          1.9187005819e-05 2.4974448024e-05 4.871818237e-05 9.7695927252e-05 3.1141164072e-05 4.9590176786e-05
          2.7440206395e-05 7.4038584899e-06 5.2744886489e-05 5.60121116e-05 8.8376200438e-06 4.8507041356e-05
          3.9163311158e-05 3.3860309486e-05 5.2630140999e-05 6.4359046519e-06 3.3183347114e-05 5.3372445109e-05
          2.9736222132e-05 2.3740421966e-05 5.0017468311e-05 4.5497821702e-05 2.3428772693e-05 4.8170601076e-05
          1.601895201e-05 3.6589295632e-05 5.0267419283e-05 8.2192826085e-05 3.5057924833e-05 5.342098666e-05
          6.7097907959e-06 1.287947839e-06 5.0162787375e-05 5.4127533076e-05 1.383867675e-05 5.2276849601e-05
          8.197700663e-05 7.1640765782e-06 4.8867110308e-05 6.1720900703e-05 1.0475424688e-06 5.3527317505e-05
          4.5830842282e-05 1.2537353541e-05 5.0568647566e-05 2.4712633603e-05 1.7352524083e-05 5.1031132898e-05
          4.9071310059e-05 3.804743028e-05 5.2026851336e-05 1.1574965356e-05 1.9460912881e-05 5.0933635066e-05
          4.2820465751e-05 3.1364812457e-05 5.1888102462e-05 5.1029412134e-05 1.9006291041e-05 5.1675593568e-05
          3.2152831409e-05 1.8448834453e-05 5.046392107e-05 9.9091441371e-05 1.7680175006e-05 5.193580364e-05
          6.6630804213e-05 9.0856030965e-07 5.1160666771e-05 7.9272154835e-05 6.6208181124e-06 5.1083534345e-05
          2.0033832698e-05 8.8937358669e-06 5.0430273404e-05 6.1394501245e-05 3.4907654481e-05 5.0004229706e-05
          4.9965415201e-06 2.5558576453e-05 4.9991820561e-05 2.0387309632e-05 7.1045024015e-06 4.9996851885e-05
          8.0156998592e-05 7.6004530456e-06 5.0001632189e-05 5.835410775e-06 2.4341312383e-05 5.0644011935e-05
          2.4586235668e-05 1.7577585822e-05 4.9723261327e-05 4.6175722673e-05 1.2364394934e-05 4.928366252e-05
          8.0701349361e-05 7.8091152318e-06 5.0003622164e-05 8.3953727881e-06 1.7542288333e-06 4.9997026508e-05
          1.6073896404e-05 3.7529873225e-05 4.920302672e-05 4.5117671107e-05 2.3945909561e-05 5.0000300689e-05
          6.194292655e-05 3.4725700971e-05 5.1396615163e-05 6.6056898504e-05 2.033975079e-06 5.1022747357e-05
          2.7974087061e-05 2.399485129e-05 4.9991049309e-05 5.4698768508e-05 8.7314629127e-06 4.999151497e-05
          9.7857540823e-05 3.1225194107e-05 4.8273079301e-05 1.859969052e-05 2.6623247322e-05 4.9739282986e-05
          9.882444283e-05 1.8939224901e-05 5.1225568313e-05 3.2823823858e-05 1.8722572349e-05 5.2640189097e-05
          5.2729868912e-05 1.9282420908e-05 5.1569601055e-05 4.3248153816e-05 3.1493869756e-05 5.061738193e-05
          9.2773298093e-05 3.8314938138e-05 4.7369743697e-05 5.1435989008e-05 2.2146368792e-06 4.8745350796e-05
          1.1030444512e-05 1.8269833163e-05 5.2706371207e-05 4.5927026804e-05 1.1448631085e-05 4.8551642976e-05
          5.0109203585e-05 3.6605870264e-05 5.2950774261e-05 6.2091086875e-05 1.9159081148e-06 5.2464009059e-05
          5.4416712373e-05 1.2564577446e-05 5.4052808991e-05 8.3486178482e-05 3.5232431401e-05 5.2643557865e-05
          8.218910807e-06 3.3111027733e-05 5.3484258387e-05 3.7755875383e-05 3.4501314076e-05 5.4101361457e-05
          2.7390504329e-05 7.3819060162e-06 5.5070282542e-05 9.0770430688e-05 2.7920341381e-05 5.5349424656e-05
          9.7764481325e-05 2.1904434107e-05 4.737589552e-05 7.0311616582e-05 6.6026236709e-06 5.4349464335e-05
          1.6024077922e-05 1.4078403183e-05 4.4004787924e-05 3.5423607187e-05 2.296994171e-05 4.4303516916e-05
          7.9647674283e-05 3.0034581869e-05 5.9633206547e-05 7.7648750448e-05 6.2627664192e-06 6.037284038e-05
          4.3313993956e-05 3.1879222661e-05 6.0219874285e-05 9.6411153208e-05 1.8699625798e-05 4.3204447138e-05
          3.4068529203e-05 6.3422244239e-06 6.3501895056e-05 1.3190803656e-05 2.5438283046e-05 4.1669380153e-05
        </DataArray>
      </Points>
      <Cells>
        <DataArray type="Int64" Name="connectivity" format="ascii" RangeMin="0" RangeMax="81">
          0 1 2 3 4 5
          6 7 8 9 10 11
          12 13 14 15 16 17
          18 19 20 21 22 23
          24 25 26 27 28 29
          30 31 32 33 34 35
          36 37 38 39 40 41
          42 43 44 45 46 47
          48 49 50 51 52 53
          54 55 56 57 58 59
          60 61 62 63 64 65
          66 67 68 69 70 71
          72 73 74 75 76 77
          78 79 80 81
        </DataArray>
        <DataArray type="Int64" Name="offsets" format="ascii" RangeMin="1" RangeMax="82">
          1 2 3 4 5 6
          7 8 9 10 11 12
          13 14 15 16 17 18
          19 20 21 22 23 24
          25 26 27 28 29 30
          31 32 33 34 35 36
          37 38 39 40 41 42
          43 44 45 46 47 48
          49 50 51 52 53 54
          55 56 57 58 59 60
          61 62 63 64 65 66
          67 68 69 70 71 72
          73 74 75 76 77 78
          79 80 81 82
        </DataArray>
        <DataArray type="UInt8" Name="types" format="ascii" RangeMin="1" RangeMax="1">
          1 1 1 1 1 1
          1 1 1 1 1 1
          1 1 1 1 1 1
          1 1 1 1 1 1
          1 1 1 1 1 1
          1 1 1 1 1 1
          1 1 1 1 1 1
          1 1 1 1 1 1
          1 1 1 1 1 1
          1 1 1 1 1 1
          1 1 1 1 1 1
          1 1 1 1 1 1
          1 1 1 1 1 1
          1 1 1 1
        </DataArray>
      </Cells>
    </Piece>
  </UnstructuredGrid>
</VTKFile>
