<?xml version="1.0"?>
<VTKFile type="UnstructuredGrid" version="0.1" byte_order="LittleEndian" header_type="UInt32" compressor="vtkZLibDataCompressor">
  <UnstructuredGrid>
    <Piece NumberOfPoints="82" NumberOfCells="82">
      <PointData>
        <DataArray type="Int32" Name="id" format="ascii" RangeMin="1" RangeMax="432098">
          11 9 432098 432097 17 26
          30 432094 432093 14 432091 1
          432090 432088 21 432085 35 432084
          5 432082 38 23 33 432081
          432080 31 432077 7 432075 432074
          432073 24 18 4 41 39
          432072 29 3 432071 432064 432055
          432054 432052 432051 432050 432049 36
          432048 432044 432042 432039 432038 432037
          34 16 8 25 13 432035
          37 432033 432031 15 27 12
          432028 22 2 432026 432023 32
          432022 19 6 432021 40 20
          432018 432017 28 10
        </DataArray>
        <DataArray type="Int32" Name="type" format="ascii" RangeMin="1" RangeMax="1">
          1 1 1 1 1 1
          1 1 1 1 1 1
          1 1 1 1 1 1
          1 1 1 1 1 1
          1 1 1 1 1 1
          1 1 1 1 1 1
          1 1 1 1 1 1
          1 1 1 1 1 1
          1 1 1 1 1 1
          1 1 1 1 1 1
          1 1 1 1 1 1
          1 1 1 1 1 1
          1 1 1 1 1 1
          1 1 1 1
        </DataArray>
        <DataArray type="Float64" Name="diameter" format="ascii" RangeMin="1e-06" RangeMax="1e-06">
          1e-06 1e-06 1e-06 1e-06 1e-06 1e-06
          1e-06 1e-06 1e-06 1e-06 1e-06 1e-06
          1e-06 1e-06 1e-06 1e-06 1e-06 1e-06
          1e-06 1e-06 1e-06 1e-06 1e-06 1e-06
          1e-06 1e-06 1e-06 1e-06 1e-06 1e-06
          1e-06 1e-06 1e-06 1e-06 1e-06 1e-06
          1e-06 1e-06 1e-06 1e-06 1e-06 1e-06
          1e-06 1e-06 1e-06 1e-06 1e-06 1e-06
          1e-06 1e-06 1e-06 1e-06 1e-06 1e-06
          1e-06 1e-06 1e-06 1e-06 1e-06 1e-06
          1e-06 1e-06 1e-06 1e-06 1e-06 1e-06
          1e-06 1e-06 1e-06 1e-06 1e-06 1e-06
          1e-06 1e-06 1e-06 1e-06 1e-06 1e-06
          1e-06 1e-06 1e-06 1e-06
        </DataArray>
      </PointData>
      <CellData>
      </CellData>
      <Points>
        <DataArray type="Float32" Name="Points" NumberOfComponents="3" format="ascii" RangeMin="4.7661551878e-05" RangeMax="0.00011352755562">
          2.8682779885e-05 2.1160922188e-05 3.8317099097e-05 5.6584347476e-05 3.8245638279e-05 3.6215569708e-05
          8.2326325355e-05 1.0290241335e-05 6.2772254751e-05 8.7853637524e-05 1.1939816432e-05 6.1265804106e-05
          4.5121578296e-05 5.6868848333e-06 4.0718347009e-05 4.127439297e-06 2.2344362151e-05 4.1896506445e-05
          5.9724588937e-05 3.541823753e-05 4.2897598178e-05 8.0758647528e-05 1.5904501197e-05 5.8117184381e-05
          6.5293061198e-05 3.0044271625e-05 5.6662018324e-05 6.221242802e-05 3.542043487e-05 4.2706837121e-05
          9.0680267022e-05 3.8775273424e-05 5.6232314819e-05 1.1587871995e-05 2.1353016564e-05 4.3188214477e-05
          7.3694231105e-05 1.3522214431e-05 5.4573705711e-05 2.1677056793e-05 5.5340701692e-06 5.4895474022e-05
          4.923315646e-05 1.9490466002e-05 4.5607226639e-05 2.9415186873e-06 7.4693934948e-06 5.4274150898e-05
          5.7362518419e-05 2.7413678254e-05 4.5484786824e-05 1.3102730918e-05 9.8338605312e-06 5.1920043916e-05
          8.4321247414e-05 1.6892941858e-05 4.563935363e-05 8.6336243839e-05 5.426471489e-06 5.2858940762e-05
          2.7260324714e-05 3.6195866414e-05 4.5450011385e-05 6.3179875724e-05 3.7818954297e-05 4.6686698624e-05
          1.8917817215e-05 7.3541691563e-06 4.6955592552e-05 9.1705245723e-05 3.3053162042e-05 5.2365448937e-05
          3.5106408177e-05 1.7532176571e-05 5.2796785894e-05 1.8265507606e-05 1.4218952856e-05 4.8266363592e-05
          8.3552702563e-05 3.7776680983e-05 5.0909147831e-05 6.6390173743e-05 1.2455073374e-05 4.8086665629e-05
          2.863442387e-05 1.7497348381e-05 5.1506776799e-05 5.2228373534e-05 4.4099347178e-06 5.1642105973e-05
          4.1307208448e-05 1.4386745306e-06 5.0663584261e-05 2.8891601687e-05 3.9019243559e-05 4.9170525017e-05
          9.9193726783e-05 6.8097569965e-06 4.9434336688e-05 4.4477634219e-05 1.3072476577e-05 4.8394344049e-05
          1.497111225e-05 1.9088336558e-05 4.8793110182e-05 9.4566275948e-05 3.4779761336e-05 5.0121354434e-05
          3.1405263144e-05 3.33133612e-05 5.0838258176e-05 3.0009412512e-05 1.5664705643e-05 4.9048099754e-05
          5.1080867706e-05 2.4959637813e-05 4.9925089115e-05 4.8635010899e-05 3.2608575566e-05 5.1053117204e-05
          8.7612097559e-05 3.4109252738e-05 5.0052687584e-05 5.0846083468e-05 2.5833738619e-05 4.8838945077e-05
          3.0766805139e-05 1.5737803551e-05 5.0208233006e-05 9.5318435342e-05 3.5634060623e-05 4.9193258747e-05
          1.5114981579e-05 1.8942990209e-05 5.0107828429e-05 4.4154028728e-05 1.3866152585e-05 5.0006918173e-05
          9.8210759461e-05 6.6206484917e-06 4.9462138122e-05 8.6847459897e-05 3.3614032873e-05 4.8969934141e-05
          3.0190090911e-05 3.7884525227e-05 4.9069385568e-05 6.8163026299e-05 1.2891046936e-05 4.8630874517e-05
          1.7293523342e-05 1.5220335627e-05 4.7588437155e-05 1.8715129045e-05 9.1347446869e-06 4.7104171244e-05
          6.1851184e-05 3.6694742448e-05 4.6633733291e-05 2.605653026e-05 3.6698620534e-05 4.7227953473e-05
          4.9422429584e-05 3.1669504096e-05 5.0199178077e-05 3.0280614737e-05 3.4241649701e-05 5.0238952099e-05
          4.1201936256e-05 3.1469107853e-06 5.1800667279e-05 5.3314644902e-05 5.0377293519e-06 5.0815109716e-05
          2.9383863875e-05 1.8787084628e-05 5.0953236496e-05 8.4285042249e-05 1.7950455003e-05 4.7627770982e-05
          8.4336876171e-05 3.9091439248e-05 5.142455484e-05 5.8972611441e-05 2.7978927392e-05 4.663526488e-05
          4.9231737648e-05 1.7735032088e-05 4.6610697609e-05 3.5150540498e-05 1.7577718609e-05 5.1471681218e-05
          9.2328780738e-05 3.4589804272e-05 5.2100614994e-05 8.5931307694e-05 6.0303177634e-06 5.1683702623e-05
          1.0711241885e-05 2.0260709789e-05 4.4860142225e-05 1.2402364518e-05 9.3250318969e-06 5.402802708e-05
          2.9456664379e-06 7.4735444286e-06 5.2947954828e-05 6.1737337091e-05 3.4180844523e-05 4.4460921345e-05
          5.8065379562e-05 3.5525470594e-05 4.2642241169e-05 2.0748098905e-05 4.520154107e-06 5.6597156799e-05
          4.012809768e-06 2.2435795472e-05 4.4216816605e-05 7.34780333e-05 1.2010311366e-05 5.6074921304e-05
          9.1122987214e-05 3.9091439248e-05 5.5077267461e-05 4.4969103328e-05 3.8801695155e-06 4.1436429456e-05
          6.4703228418e-05 3.1689804018e-05 5.7690554968e-05 8.0567842815e-05 1.5391997295e-05 5.6874781876e-05
          5.6664055592e-05 3.8021040382e-05 3.8526159187e-05 2.8613711038e-05 2.1384112188e-05 3.7005898776e-05
          8.612646343e-05 1.2524397789e-05 6.1664970417e-05 8.3215156337e-05 1.0520420801e-05 6.169363769e-05
        </DataArray>
      </Points>
      <Cells>
        <DataArray type="Int64" Name="connectivity" format="ascii" RangeMin="0" RangeMax="81">
          0 1 2 3 4 5
          6 7 8 9 10 11
          12 13 14 15 16 17
          18 19 20 21 22 23
          24 25 26 27 28 29
          30 31 32 33 34 35
          36 37 38 39 40 41
          42 43 44 45 46 47
          48 49 50 51 52 53
          54 55 56 57 58 59
          60 61 62 63 64 65
          66 67 68 69 70 71
          72 73 74 75 76 77
          78 79 80 81
        </DataArray>
        <DataArray type="Int64" Name="offsets" format="ascii" RangeMin="1" RangeMax="82">
          1 2 3 4 5 6
          7 8 9 10 11 12
          13 14 15 16 17 18
          19 20 21 22 23 24
          25 26 27 28 29 30
          31 32 33 34 35 36
          37 38 39 40 41 42
          43 44 45 46 47 48
          49 50 51 52 53 54
          55 56 57 58 59 60
          61 62 63 64 65 66
          67 68 69 70 71 72
          73 74 75 76 77 78
          79 80 81 82
        </DataArray>
        <DataArray type="UInt8" Name="types" format="ascii" RangeMin="1" RangeMax="1">
          1 1 1 1 1 1
          1 1 1 1 1 1
          1 1 1 1 1 1
          1 1 1 1 1 1
          1 1 1 1 1 1
          1 1 1 1 1 1
          1 1 1 1 1 1
          1 1 1 1 1 1
          1 1 1 1 1 1
          1 1 1 1 1 1
          1 1 1 1 1 1
          1 1 1 1 1 1
          1 1 1 1 1 1
          1 1 1 1
        </DataArray>
      </Cells>
    </Piece>
  </UnstructuredGrid>
</VTKFile>
