  Granular Flow Simulation

       0 atoms
       7 atom types
       5 nutrients

   0.000000e-04   1e-04  xlo xhi
   0.000000e-04   0.2e-04  ylo yhi
   0.000000e-04   1e-04  zlo zhi

 Atoms


 Nutrients

     1 il17 l 0 0 0 0 0 0 0
     2 tnfa l 0 0 0 0 0 0 0
     3 il23 l 0 0 0 0 0 0 0
     4 gf l 0 0 0 0 0 0 0
     5 ca l 0.015 0.015 0.015 0.015 0.015 0.015 0

 Type Name

     1 stem
     2 ta
     3 diff
     4 tcell
     5 dc
     6 apop
     7 bm

 Diffusion Coeffs

     il17 1.6e-9
     tnfa 1.6e-9
     il23 1.6e-9
     gf 1.6e-9
     ca 1.0e-9

 Division Counter

     stem 0
     ta 0
     diff 0
     tcell 0
     dc 0
     apop 0
     bm 0

 Growth Rate

    stem 2.04108796e-8
    ta 2.03263889e-8
    diff 0
    tcell 0.00063657407
    dc 0
    apop 0
    bm 0

 Decay

    stem 0
    ta 4.3195602e-11
    diff 5.8449074e-12
    tcell 0.00001747685
    dc 0.00001747685
    apop 0
    bm 0
