<?xml version="1.0"?>
<VTKFile type="UnstructuredGrid" version="0.1" byte_order="LittleEndian" header_type="UInt32" compressor="vtkZLibDataCompressor">
  <UnstructuredGrid>
    <Piece NumberOfPoints="20" NumberOfCells="20">
      <PointData>
        <DataArray type="Int32" Name="id" format="ascii" RangeMin="1" RangeMax="129093">
          129076 129077 8 3 5 129078
          6 129082 4 129081 129084 10
          9 129087 2 129088 129091 7
          1 129093
        </DataArray>
        <DataArray type="Int32" Name="type" format="ascii" RangeMin="1" RangeMax="1">
          1 1 1 1 1 1
          1 1 1 1 1 1
          1 1 1 1 1 1
          1 1
        </DataArray>
        <DataArray type="Float64" Name="diameter" format="ascii" RangeMin="1e-06" RangeMax="1e-06">
          1e-06 1e-06 1e-06 1e-06 1e-06 1e-06
          1e-06 1e-06 1e-06 1e-06 1e-06 1e-06
          1e-06 1e-06 1e-06 1e-06 1e-06 1e-06
          1e-06 1e-06
        </DataArray>
      </PointData>
      <CellData>
      </CellData>
      <Points>
        <DataArray type="Float32" Name="Points" NumberOfComponents="3" format="ascii" RangeMin="3.4713909161e-05" RangeMax="0.00011265002427">
          6.3296844019e-05 3.1757594115e-05 2.8825606933e-05 1.8498105419e-05 2.2598194391e-06 2.9287690268e-05
          6.1797407398e-05 3.1627892895e-05 2.9859967981e-05 1.8590684704e-05 2.6035791052e-06 3.1078860047e-05
          1.7233582184e-05 1.0524194295e-05 4.1675772081e-05 1.8402122805e-05 1.1913351955e-05 4.1875238821e-05
          7.3560935562e-05 2.0477071303e-05 4.56544185e-05 4.7777622967e-05 1.494067601e-05 4.745608021e-05
          4.8726778914e-05 1.6500491256e-05 4.7422796342e-05 7.3272822192e-05 2.0888985091e-05 4.7410081606e-05
          9.3464368547e-05 1.0444042346e-05 5.3686988394e-05 9.1640846222e-05 1.0525226571e-05 5.3743620811e-05
          8.9822438895e-05 5.1799638641e-06 5.7887333242e-05 8.9658671641e-05 5.5161017372e-06 5.967485049e-05
          5.0471076975e-05 3.5200482671e-05 6.4984502387e-05 5.0353672123e-05 3.5385168303e-05 6.6797547333e-05
          7.4176117778e-05 3.6603749322e-05 7.5238385762e-05 7.4687486631e-05 3.8351907278e-05 7.5106181612e-05
          8.7779908426e-06 3.0783619877e-05 8.6818821728e-05 8.1644502643e-06 3.2238644053e-05 8.7736159912e-05
        </DataArray>
      </Points>
      <Cells>
        <DataArray type="Int64" Name="connectivity" format="ascii" RangeMin="0" RangeMax="19">
          0 1 2 3 4 5
          6 7 8 9 10 11
          12 13 14 15 16 17
          18 19
        </DataArray>
        <DataArray type="Int64" Name="offsets" format="ascii" RangeMin="1" RangeMax="20">
          1 2 3 4 5 6
          7 8 9 10 11 12
          13 14 15 16 17 18
          19 20
        </DataArray>
        <DataArray type="UInt8" Name="types" format="ascii" RangeMin="1" RangeMax="1">
          1 1 1 1 1 1
          1 1 1 1 1 1
          1 1 1 1 1 1
          1 1
        </DataArray>
      </Cells>
    </Piece>
  </UnstructuredGrid>
</VTKFile>
