<?xml version="1.0"?>
<VTKFile type="UnstructuredGrid" version="0.1" byte_order="LittleEndian" header_type="UInt32" compressor="vtkZLibDataCompressor">
  <UnstructuredGrid>
    <Piece NumberOfPoints="82" NumberOfCells="82">
      <PointData>
        <DataArray type="Int32" Name="id" format="ascii" RangeMin="1" RangeMax="113086">
          16 113006 32 113007 8 39
          113009 113011 33 113014 113013 7
          113019 113021 40 11 41 35
          24 4 31 34 113023 10
          113024 113022 113028 113025 113029 113027
          113040 113033 113036 25 9 3
          36 19 113049 113053 113055 113052
          26 21 113039 113057 113058 30
          17 20 113051 113062 113059 38
          113060 14 2 18 28 1
          113071 113064 113063 6 113072 29
          113073 23 12 27 113078 113077
          15 113074 37 113076 5 113082
          22 113084 113086 13
        </DataArray>
        <DataArray type="Int32" Name="type" format="ascii" RangeMin="1" RangeMax="1">
          1 1 1 1 1 1
          1 1 1 1 1 1
          1 1 1 1 1 1
          1 1 1 1 1 1
          1 1 1 1 1 1
          1 1 1 1 1 1
          1 1 1 1 1 1
          1 1 1 1 1 1
          1 1 1 1 1 1
          1 1 1 1 1 1
          1 1 1 1 1 1
          1 1 1 1 1 1
          1 1 1 1 1 1
          1 1 1 1
        </DataArray>
        <DataArray type="Float64" Name="diameter" format="ascii" RangeMin="1e-06" RangeMax="1e-06">
          1e-06 1e-06 1e-06 1e-06 1e-06 1e-06
          1e-06 1e-06 1e-06 1e-06 1e-06 1e-06
          1e-06 1e-06 1e-06 1e-06 1e-06 1e-06
          1e-06 1e-06 1e-06 1e-06 1e-06 1e-06
          1e-06 1e-06 1e-06 1e-06 1e-06 1e-06
          1e-06 1e-06 1e-06 1e-06 1e-06 1e-06
          1e-06 1e-06 1e-06 1e-06 1e-06 1e-06
          1e-06 1e-06 1e-06 1e-06 1e-06 1e-06
          1e-06 1e-06 1e-06 1e-06 1e-06 1e-06
          1e-06 1e-06 1e-06 1e-06 1e-06 1e-06
          1e-06 1e-06 1e-06 1e-06 1e-06 1e-06
          1e-06 1e-06 1e-06 1e-06 1e-06 1e-06
          1e-06 1e-06 1e-06 1e-06 1e-06 1e-06
          1e-06 1e-06 1e-06 1e-06
        </DataArray>
      </PointData>
      <CellData>
      </CellData>
      <Points>
        <DataArray type="Float32" Name="Points" NumberOfComponents="3" format="ascii" RangeMin="4.7588375146e-05" RangeMax="0.00011672167005">
          4.2973151722e-05 1.6433565179e-05 3.2801846828e-05 4.2917108658e-05 1.633865395e-05 3.562472557e-05
          4.3307081796e-05 1.1149470083e-05 3.8747901272e-05 4.1868632252e-05 1.2060641893e-05 4.0407947381e-05
          7.77414607e-05 6.8319486672e-06 4.0199371142e-05 6.0362530348e-05 3.8985483116e-05 4.0183909732e-05
          7.6911142969e-05 8.4018856796e-06 4.1624683945e-05 6.0231304815e-05 3.8946258428e-05 4.3004973122e-05
          2.2910144253e-05 3.2865951653e-05 4.2768482672e-05 5.8382818679e-05 1.0556016605e-05 4.4066808186e-05
          2.1590049073e-05 3.1989584386e-05 4.4676427933e-05 5.8489589719e-05 1.1640350749e-05 4.4532360334e-05
          1.2736268218e-05 6.4195910454e-06 4.6203942475e-05 2.9032065868e-05 2.2677962988e-05 4.6437926358e-05
          8.8866181613e-05 2.5156627089e-05 4.5457247325e-05 1.1764625924e-05 5.0094508879e-06 4.5838329243e-05
          9.7639685919e-06 1.114184397e-05 4.5936227252e-05 5.7900586398e-05 1.8398966859e-05 4.5862991101e-05
          2.842747017e-05 2.1011239369e-05 4.5875563956e-05 4.5197655709e-05 4.9917248361e-06 4.6272645704e-05
          1.37502293e-05 3.0000306651e-05 4.6473982366e-05 1.6693644284e-05 3.1772888178e-05 4.6269327868e-05
          4.4510092266e-05 6.3264133132e-06 4.8312303988e-05 9.8334989161e-05 7.020983503e-06 4.7030254791e-05
          1.0471145288e-05 1.2075870472e-05 4.8337129556e-05 8.8516753749e-05 2.5661005566e-05 4.8177284043e-05
          1.6604919438e-05 3.02825174e-05 4.8320969654e-05 5.7526918681e-05 1.8421213099e-05 4.8650421377e-05
          9.9091441371e-05 6.7226355895e-06 4.9008605856e-05 1.4283253222e-05 2.9389890187e-05 4.9110538384e-05
          7.0840542321e-05 9.7773827292e-06 4.9865662731e-05 7.7303891885e-05 1.699853965e-05 4.9749665777e-05
          3.6343946704e-05 6.9989428084e-06 5.0008053222e-05 7.5544041465e-05 1.7338923499e-05 4.9099089665e-05
          9.0736284619e-05 2.9359114706e-05 4.9012709496e-05 3.6435558286e-05 5.3788580772e-06 4.994588744e-05
          5.8457022533e-05 9.4009128588e-06 4.9666075938e-05 7.4403367762e-05 2.1868241674e-05 4.9653979659e-05
          9.1830836027e-05 2.8125132303e-05 4.9996469897e-05 7.4554809544e-05 3.0658084142e-05 4.9991183914e-05
          7.3543204053e-05 9.9950784715e-06 4.9991769629e-05 4.2642175686e-05 2.8254842618e-05 5.0001526688e-05
          7.1071830462e-05 9.7264210126e-06 5.0836799346e-05 1.4273063243e-05 9.7079885109e-07 5.107202378e-05
          5.8227939007e-05 8.3126114987e-06 5.0114576879e-05 8.0841135059e-05 9.7760121207e-06 5.0092152378e-05
          8.1090402091e-05 2.2069943952e-05 5.0201786507e-05 7.458973414e-05 2.2898968382e-05 5.1203929615e-05
          7.4347131886e-05 2.9819133488e-05 5.1359929785e-05 7.3477262049e-05 9.9326125564e-06 5.1955714298e-05
          7.4048672104e-05 2.1967623979e-05 5.0571099564e-05 9.558812053e-06 2.2935848392e-05 5.0588561862e-05
          7.5086965808e-05 2.4518909413e-05 5.0884798839e-05 4.2632385885e-05 2.8239748644e-05 5.1867642469e-05
          1.543043436e-05 9.0856030965e-07 5.1449937018e-05 6.1542763433e-05 1.936694207e-05 5.221048923e-05
          2.4877056148e-06 6.119849786e-06 5.2585884987e-05 8.0957950559e-05 1.0456701602e-05 5.2782728744e-05
          8.1696394773e-05 2.1142355763e-05 5.2653467719e-05 9.5556069937e-06 2.2086842364e-05 5.3205414588e-05
          9.7441858088e-05 3.0080609577e-05 5.2101469919e-05 6.2312086811e-05 1.9837090804e-05 5.2798608522e-05
          2.3487236831e-06 6.7171481533e-06 5.3359020967e-05 7.0686131949e-05 2.2612466637e-05 5.4332664149e-05
          6.9243484177e-05 2.3726999643e-05 5.3224888688e-05 9.8779280961e-05 3.0237450119e-05 5.4335057939e-05
          1.7601232685e-05 1.883583991e-06 5.3904252127e-05 4.2855983338e-05 2.4803761335e-05 5.4660620663e-05
          1.6146290363e-05 9.0856030965e-07 5.5287604482e-05 9.4628041552e-05 1.6288715415e-05 5.5221935327e-05
          8.4276485723e-05 1.1273662494e-05 5.4542306316e-05 5.4789656133e-05 1.9706934836e-05 5.4933236243e-05
          5.6235101511e-05 1.8616734451e-05 5.617235729e-05 4.2247436795e-05 2.4545122869e-05 5.5387947214e-05
          8.5387728177e-05 1.112244081e-05 5.6983593822e-05 9.4501439889e-05 1.6286154278e-05 5.6210094044e-05
          4.1925930418e-05 1.4852334061e-05 6.2297673139e-05 4.2983392632e-05 1.4754928998e-05 6.2783372414e-05
          6.8103950071e-06 9.8482605608e-06 6.4073625254e-05 5.5692080423e-06 9.8144901131e-06 6.4412779466e-05
          2.1330208256e-05 7.8100601968e-06 6.6570100898e-05 2.1793368433e-05 7.3205355875e-06 6.9267414801e-05
        </DataArray>
      </Points>
      <Cells>
        <DataArray type="Int64" Name="connectivity" format="ascii" RangeMin="0" RangeMax="81">
          0 1 2 3 4 5
          6 7 8 9 10 11
          12 13 14 15 16 17
          18 19 20 21 22 23
          24 25 26 27 28 29
          30 31 32 33 34 35
          36 37 38 39 40 41
          42 43 44 45 46 47
          48 49 50 51 52 53
          54 55 56 57 58 59
          60 61 62 63 64 65
          66 67 68 69 70 71
          72 73 74 75 76 77
          78 79 80 81
        </DataArray>
        <DataArray type="Int64" Name="offsets" format="ascii" RangeMin="1" RangeMax="82">
          1 2 3 4 5 6
          7 8 9 10 11 12
          13 14 15 16 17 18
          19 20 21 22 23 24
          25 26 27 28 29 30
          31 32 33 34 35 36
          37 38 39 40 41 42
          43 44 45 46 47 48
          49 50 51 52 53 54
          55 56 57 58 59 60
          61 62 63 64 65 66
          67 68 69 70 71 72
          73 74 75 76 77 78
          79 80 81 82
        </DataArray>
        <DataArray type="UInt8" Name="types" format="ascii" RangeMin="1" RangeMax="1">
          1 1 1 1 1 1
          1 1 1 1 1 1
          1 1 1 1 1 1
          1 1 1 1 1 1
          1 1 1 1 1 1
          1 1 1 1 1 1
          1 1 1 1 1 1
          1 1 1 1 1 1
          1 1 1 1 1 1
          1 1 1 1 1 1
          1 1 1 1 1 1
          1 1 1 1 1 1
          1 1 1 1 1 1
          1 1 1 1
        </DataArray>
      </Cells>
    </Piece>
  </UnstructuredGrid>
</VTKFile>
