<?xml version="1.0"?>
<VTKFile type="UnstructuredGrid" version="0.1" byte_order="LittleEndian" header_type="UInt32" compressor="vtkZLibDataCompressor">
  <UnstructuredGrid>
    <Piece NumberOfPoints="82" NumberOfCells="82">
      <PointData>
        <DataArray type="Int32" Name="id" format="ascii" RangeMin="1" RangeMax="100026">
          16 99945 33 99950 99947 99949
          99951 9 41 39 99957 99955
          25 38 8 3 99962 99960
          99964 99967 20 99971 15 14
          99965 37 32 1 40 30
          99973 99982 99970 26 99979 5
          99984 99978 11 99975 99976 27
          6 99990 7 99983 99997 10
          29 31 99994 21 99995 19
          99996 35 99991 17 34 99999
          100009 2 28 100001 99998 100015
          36 100016 100011 100018 100013 4
          100019 23 12 24 100020 18
          100024 13 100026 22
        </DataArray>
        <DataArray type="Int32" Name="type" format="ascii" RangeMin="1" RangeMax="1">
          1 1 1 1 1 1
          1 1 1 1 1 1
          1 1 1 1 1 1
          1 1 1 1 1 1
          1 1 1 1 1 1
          1 1 1 1 1 1
          1 1 1 1 1 1
          1 1 1 1 1 1
          1 1 1 1 1 1
          1 1 1 1 1 1
          1 1 1 1 1 1
          1 1 1 1 1 1
          1 1 1 1 1 1
          1 1 1 1
        </DataArray>
        <DataArray type="Float64" Name="diameter" format="ascii" RangeMin="1e-06" RangeMax="1e-06">
          1e-06 1e-06 1e-06 1e-06 1e-06 1e-06
          1e-06 1e-06 1e-06 1e-06 1e-06 1e-06
          1e-06 1e-06 1e-06 1e-06 1e-06 1e-06
          1e-06 1e-06 1e-06 1e-06 1e-06 1e-06
          1e-06 1e-06 1e-06 1e-06 1e-06 1e-06
          1e-06 1e-06 1e-06 1e-06 1e-06 1e-06
          1e-06 1e-06 1e-06 1e-06 1e-06 1e-06
          1e-06 1e-06 1e-06 1e-06 1e-06 1e-06
          1e-06 1e-06 1e-06 1e-06 1e-06 1e-06
          1e-06 1e-06 1e-06 1e-06 1e-06 1e-06
          1e-06 1e-06 1e-06 1e-06 1e-06 1e-06
          1e-06 1e-06 1e-06 1e-06 1e-06 1e-06
          1e-06 1e-06 1e-06 1e-06 1e-06 1e-06
          1e-06 1e-06 1e-06 1e-06
        </DataArray>
      </PointData>
      <CellData>
      </CellData>
      <Points>
        <DataArray type="Float32" Name="Points" NumberOfComponents="3" format="ascii" RangeMin="5.1108745464e-05" RangeMax="0.00011101248667">
          4.3840445869e-05 1.3933999071e-05 3.5954421037e-05 4.5596403652e-05 1.3622881852e-05 3.6560901208e-05
          2.9843849916e-05 3.8750360545e-05 4.1617837269e-05 6.1157872551e-05 3.7136182073e-05 4.4419521146e-05
          2.9609032936e-05 3.9091439248e-05 4.4377895392e-05 9.6889059932e-05 2.6251627787e-05 4.5194923587e-05
          2.0382116418e-05 1.8396165615e-05 4.5673215936e-05 9.8299264209e-05 2.5350760552e-05 4.492622611e-05
          2.1151328838e-05 1.9999853976e-05 4.5087370381e-05 6.0858430516e-05 3.7679048546e-05 4.5197681175e-05
          3.8927591959e-05 3.8008540741e-06 4.6591245336e-05 8.654974954e-05 9.0856030965e-07 4.7243527661e-05
          7.4561859947e-05 1.6112458979e-05 4.6148736146e-05 4.2987907364e-05 3.0344692277e-05 4.6169156121e-05
          8.6081934569e-05 1.7969109649e-06 4.6546792873e-05 3.7971483835e-05 4.5543133638e-06 4.6952565754e-05
          7.8421820945e-05 1.107760454e-05 4.8371726734e-05 7.4333758675e-05 1.4518039279e-05 4.8009449529e-05
          6.2578845245e-05 1.9120741854e-05 4.8054629588e-05 8.5387226136e-05 2.9112768971e-05 4.8345074902e-05
          8.023394912e-05 1.1079271644e-05 4.7598026867e-05 6.1267528508e-05 1.2282150237e-05 4.8898295063e-05
          5.6748154748e-05 1.279877597e-05 4.7601664846e-05 6.1081627791e-05 1.9842891561e-05 4.7810852266e-05
          4.34767353e-05 2.9935086786e-05 4.8880381655e-05 7.7161799709e-05 1.1954527508e-05 4.8322268412e-05
          3.6425721191e-05 1.7309128452e-05 4.830834223e-05 2.3992747629e-06 2.1612413548e-05 4.814685235e-05
          8.5415347712e-05 2.7408526876e-05 4.8000667448e-05 7.80203045e-05 2.0192315787e-05 4.8834550398e-05
          7.9457327956e-05 2.1311503588e-05 4.9702601245e-05 7.6022173744e-05 3.7608282582e-05 4.9914582632e-05
          5.6552926253e-05 1.2541191609e-05 4.9999041948e-05 6.189787382e-05 1.321954278e-05 4.9333208153e-05
          5.045265425e-06 9.3221306088e-06 4.9997470342e-05 4.1204311856e-05 1.8850168999e-05 4.9395297538e-05
          8.9705739811e-05 2.0190325813e-05 4.9991136621e-05 2.3315828912e-06 2.1756932256e-05 5.0006074162e-05
          6.4380037657e-06 8.2251681306e-06 5.0135629863e-05 7.6861710113e-05 1.2277748283e-05 4.9994414439e-05
          3.5766999645e-05 1.7125057639e-05 5.0001635827e-05 9.1456786322e-05 2.0271825633e-05 5.0503214879e-05
          7.6261596405e-05 3.8071706513e-05 5.0755763368e-05 1.5088293367e-05 1.9344456632e-06 5.0334954722e-05
          6.1971935793e-05 9.3608969109e-06 5.1029051974e-05 4.111979797e-05 1.871888162e-05 5.0374968851e-05
          7.4123607192e-05 2.9991735573e-05 5.0488743e-05 9.7091557109e-05 1.5010053858e-06 5.1723429351e-05
          8.3562590589e-05 3.1456929719e-05 5.1579125284e-05 1.9791457817e-05 3.6377303331e-05 5.1636197895e-05
          2.139537537e-05 3.7207821151e-05 5.0905866374e-05 1.3537708583e-05 1.6014635094e-06 5.2240404329e-05
          8.2224352809e-05 1.9285484086e-05 5.1353621529e-05 8.0816309492e-05 2.0446968847e-05 5.2295221394e-05
          8.7294902187e-05 2.084668813e-05 5.1080063713e-05 5.8814333897e-05 2.2560901925e-05 5.2019335271e-05
          6.1620397901e-05 8.5708925326e-06 5.1637573051e-05 7.4268245953e-05 3.1449984817e-05 5.2578521718e-05
          2.468403909e-05 3.0994957342e-05 5.2987845265e-05 9.6999887319e-05 1.5513704739e-06 5.2709921874e-05
          5.5601787608e-05 5.7507172642e-06 5.257443263e-05 4.48338551e-06 7.5295220086e-06 5.3913383454e-05
          8.6749874754e-05 2.0410079742e-05 5.37674714e-05 5.9477810282e-05 2.2096468456e-05 5.2656141634e-05
          8.3690378233e-05 3.1556824979e-05 5.2558803873e-05 4.5300155762e-05 9.6308203865e-06 5.3379288147e-05
          5.7032826589e-05 5.6291387409e-06 5.4702431953e-05 4.0981904021e-05 2.1630046831e-05 5.3979947552e-05
          2.450248212e-05 3.0835413781e-05 5.395833432e-05 7.9345052654e-05 9.6151472917e-07 5.4373253079e-05
          3.8656721699e-06 8.2545320765e-06 5.4471529438e-05 4.6109107643e-05 8.3459817688e-06 5.5394084484e-05
          2.8551510695e-05 2.3070939278e-05 5.4174470279e-05 3.9493857912e-05 2.2226773581e-05 5.5854397942e-05
          1.8502638341e-05 1.2884781881e-06 5.6115812185e-05 2.9192748116e-05 2.3276581487e-05 5.687198427e-05
          1.9725812308e-05 9.0856030965e-07 5.6251981732e-05 7.9361132521e-05 1.3607511846e-06 5.7155211834e-05
          2.726731509e-05 8.4808316387e-06 6.506259524e-05 2.560376015e-05 8.3117984104e-06 6.6796790634e-05
          1.870808228e-05 1.0639466382e-05 7.6250958955e-05 1.8880798962e-05 1.0907166143e-05 7.9049161286e-05
        </DataArray>
      </Points>
      <Cells>
        <DataArray type="Int64" Name="connectivity" format="ascii" RangeMin="0" RangeMax="81">
          0 1 2 3 4 5
          6 7 8 9 10 11
          12 13 14 15 16 17
          18 19 20 21 22 23
          24 25 26 27 28 29
          30 31 32 33 34 35
          36 37 38 39 40 41
          42 43 44 45 46 47
          48 49 50 51 52 53
          54 55 56 57 58 59
          60 61 62 63 64 65
          66 67 68 69 70 71
          72 73 74 75 76 77
          78 79 80 81
        </DataArray>
        <DataArray type="Int64" Name="offsets" format="ascii" RangeMin="1" RangeMax="82">
          1 2 3 4 5 6
          7 8 9 10 11 12
          13 14 15 16 17 18
          19 20 21 22 23 24
          25 26 27 28 29 30
          31 32 33 34 35 36
          37 38 39 40 41 42
          43 44 45 46 47 48
          49 50 51 52 53 54
          55 56 57 58 59 60
          61 62 63 64 65 66
          67 68 69 70 71 72
          73 74 75 76 77 78
          79 80 81 82
        </DataArray>
        <DataArray type="UInt8" Name="types" format="ascii" RangeMin="1" RangeMax="1">
          1 1 1 1 1 1
          1 1 1 1 1 1
          1 1 1 1 1 1
          1 1 1 1 1 1
          1 1 1 1 1 1
          1 1 1 1 1 1
          1 1 1 1 1 1
          1 1 1 1 1 1
          1 1 1 1 1 1
          1 1 1 1 1 1
          1 1 1 1 1 1
          1 1 1 1 1 1
          1 1 1 1 1 1
          1 1 1 1
        </DataArray>
      </Cells>
    </Piece>
  </UnstructuredGrid>
</VTKFile>
