Granular Flow Simulation

     0 atoms
     7 atom types
     2 nutrients

     0.000000e-04   0.5e-04  xlo xhi
     0.000000e-04   0.2e-04  ylo yhi
     0.000000e-04   0.3e-04  zlo zhi

Atoms


Nutrients

   1 gf l 0 0 0 0 0 0 0
   2 ca l 1e-4 1e-4 1e-4 1e-4 1e-4 1e-4 1e-4

Type Name

   1 stem
   2 ta
   3 diff
   4 tcell
   5 dc
   6 apop
   7 bm

Diffusion Coeffs

   gf 1.6e-9
   ca 1.6e-9

Division Counter

   stem 0
   ta 0
   diff 0
   tcell 0
   dc 0
   apop 0
   bm 0

 Growth Rate

    stem 2.049784
    ta 2.03300002091
    diff 0
    tcell 6.365
    dc 0.0694
    apop 0
    bm 0

  Decay

   stem 2.111e-8
   ta 4.320e-9
   diff 5.845e-7
   tcell 5.748e-5
   dc 1.747685e-5
   apop 0
   bm 0
