  Granular Flow Simulation

       10 atoms
       7 atom types
       4 nutrients

   0.000000e-04   0.5e-04  xlo xhi
   0.000000e-04   0.2e-04  ylo yhi
   0.000000e-04   0.6e-04  zlo zhi

 Atoms

     1 2 1e-6 150 0.0e-5 0.2e-4 2.0e-5 1e-6
     2 2 1e-6 150 0.5e-5 0.2e-4 1.8e-5 1e-6
     3 2 1e-6 150 1.0e-5 0.2e-4 1.7e-5 1e-6
     4 2 1e-6 150 1.5e-5 0.2e-4 2.0e-5 1e-6
     5 2 1e-6 150 2.0e-5 0.2e-4 1.8e-5 1e-6
     6 2 1e-6 150 2.5e-5 0.2e-4 1.7e-5 1e-6
     7 2 1e-6 150 3.0e-5 0.2e-4 2.0e-5 1e-6
     8 2 1e-6 150 3.5e-5 0.2e-4 1.9e-5 1e-6
     9 2 1e-6 150 4.0e-5 0.2e-4 1.7e-5 1e-6
     10 2 1e-6 150 4.5e-5 0.2e-4 1.9e-5 1e-6

 Nutrients

     1 il17 l 0 0 0 0 0 0 0
     2 tnfa l 0 0 0 0 0 0 0
     3 il23 l 0 0 0 0 0 0 0
     4 gf l 0 0 0 0 0 0 0

 Type Name

     1 stem
     2 ta
     3 diff
     4 tcell
     5 dc
     6 apop
     7 bm

 Diffusion Coeffs

     il17 1.6e-9
     tnfa 1.6e-9
     il23 1.6e-9
     gf 1.6e-9

 Division Counter

     stem 0
     ta 0
     diff 0
     tcell 0
     dc 0
     apop 0
     bm 0

 Growth Rate

    stem 2.04108796e-8
    ta 2.03263889e-8
    diff 0
    tcell 0.00063657407
    dc 0
    apop 0
    bm 0

 Decay

    stem 2.1105324e-10
    ta 4.3195602e-11
    diff 5.8449074e-12
    tcell 0.00001747685
    dc 0.00001747685
    apop 0
    bm 0
